#BIOSYM hessian 1
@Type: Hessian Update
@Units
 distance: 	A
 energy: 	Kcal/Mol
#header
@natom 67

#label
C1      C2      C3      C4      C5      C6      C7      C8      C9      C10     C11     C12     C13     C14     C15     C16     C17     C18     C19     C20     C21     C22     C23     H24     C25     C26     C27     C28     C29     C30     C31     C32     C33     C34     C35     C36     C37     C38     C39     C40     C41     C42     C43     C44     C45     C46     C47     C48     C49     H50     H51     H52     H53     H54     H55     H56     H57     H58     H59     H60     H61     H62     H63     H64     H65     H66     H67

#element
C  C  C  C  C  C  C  C  C  C  C  C  C  C  C  C  C  C  C  C  C  C  C  H  C  C  C  C  C  C  C  C  C  C  C  C  C  C  C  C  C  C  C  C  C  C  C  C  C  H  H  H  H  H  H  H  H  H  H  H  H  H  H  H  H  H  H 

#matrix
201
 2.780190488169E+03
 -2.234277906224E+01 2.816444515920E+03
 2.747808854497E+00 1.071433659332E+01 1.930962749710E+02
 4.164513196276E+01 6.928140665956E+01 7.276905969776E-01 2.790180215131E+03
 3.996483968399E-02 8.880884367738E-02 -3.430140575258E-01 -2.051094164243E+01 2.760559395087E+03
 6.002589018772E-01 2.883429732366E-01 8.508428644893E+00 2.206223516044E+01 2.485823475215E+01 1.912605931864E+02
 -1.879535706982E+01 3.547652316014E+01 4.019445720681E-01 -1.291270807960E+00 -1.506474239450E+00 -1.539643187238E-01 2.808961096707E+03
 -3.796146516082E+01 5.458049555050E+01 1.304207861628E+00 4.803008170909E+00 1.132371429932E+00 1.091014009600E+00 -3.410420075395E+01 2.805498586248E+03
 9.492695232452E-02 5.556903236041E-01 1.003606466173E+01 2.092419249991E-04 -2.065107574389E-01 -2.516965289326E-01 -1.738194251859E+01 2.740650129770E+01 1.967958275714E+02
 3.897295767112E+01 -6.908477459063E+01 -1.274697342008E+00 -1.870894596033E+01 3.294893957283E+01 8.125288442299E-01 4.256913523467E+01 6.980418512820E+01 1.092213425182E+00 2.785869384514E+03
 -1.001195051347E+01 -7.698442803910E+00 9.601273729605E-01 -2.214281799869E+01 5.841972029668E+01 2.209709617057E+00 4.525809503316E+00 -2.316858507661E+01 4.554912633060E-01 -2.337629631140E+01 2.765302797322E+03
 -4.039613005696E-01 -2.495395235057E-01 9.031804054623E+00 9.294509197695E-02 1.154881501872E+00 8.733701774750E+00 -3.830041976458E-01 -1.426396120786E+00 8.097566324144E+00 1.560164435954E+00 3.539921824059E+01 1.956591160112E+02
 4.717606001436E+00 4.455086945833E+00 -4.272099971455E-01 -5.924704431263E+00 6.410846137166E-01 -8.289202035706E-01 3.919437630192E+01 -6.214481479006E+01 -2.117360722478E+00 -1.968101180849E+01 6.646637613809E+01 1.391964318782E+00 2.612167549841E+03
 -8.841775527401E+00 -7.616105980123E+00 6.572877454442E-01 1.046509647798E+01 -4.237975503824E-01 2.085360228453E+00 5.170277659895E+00 -1.997002186576E+01 7.291066954302E-01 -3.952483267405E+01 9.908281062427E+00 3.177670437538E-02 -2.019478659476E+02 2.856545941070E+03
 -2.784151222002E-01 -3.867330011034E-01 -1.124537016325E+00 5.376112431876E-01 -3.581699815525E-01 -5.611891733607E-01 -1.138236465014E-01 -1.296573685574E+00 8.339462042873E+00 -6.762843145139E-01 -1.887288855327E+00 1.215650859042E+01 -1.761156756363E+01 4.614029180836E+01 1.606321021340E+02
 -1.230925934105E+03 4.469520048093E+02 -1.100817258525E+00 -4.650882521523E+02 -8.051679302685E+00 -2.083609905522E+00 -2.887501402300E-01 8.002600948138E-01 -4.909254795014E-02 1.772950011219E-01 2.415305809940E+00 -3.507104129778E-01 -7.487741048880E-01 1.933273009787E+00 7.041037396876E-02 2.822072596511E+03
 4.412883890359E+02 -7.401559626437E+02 -2.306151134794E+00 -6.681147323917E+00 -1.431832432520E+03 -1.076595884328E+01 9.419399919269E-01 4.082025562732E-01 2.160695704209E-02 9.240921925300E-01 1.350131951419E-01 3.576010013180E-01 -9.105091087978E-01 1.252685220424E+00 -1.135984572419E-01 -6.293975730310E-02 2.780278983890E+03
 -2.357876499514E-01 -2.196325135028E+00 -8.245633291284E+01 -2.852762495343E+00 -1.055636087020E+01 -8.089497891773E+01 -1.627685908130E-01 -6.521703340739E-03 6.450039055825E+00 3.306717706751E-02 -3.874309727235E-02 -1.046094292080E+01 -3.269390970508E-01 3.802507923199E-01 -2.918179786192E+00 9.839031487602E+00 1.730446453600E+01 1.943475142847E+02
 -1.191509217433E+03 -4.144999689634E+02 -1.661319377759E+00 6.264548588355E-01 6.731703252090E-01 2.124077071470E-01 -1.253433845020E+03 4.544179865616E+02 1.082738454098E+01 -4.942908482691E+02 -1.499179800689E+01 6.580782906675E-01 2.056122814150E+00 -1.298457378823E+00 -6.348262052108E-01 -1.972332367734E+01 -3.313833019469E+01 -2.199294639422E-01 2.817510092724E+03
 -4.067081426303E+02 -6.935787218095E+02 -5.832712095112E+00 -8.404756030441E+00 -3.801016566461E+00 -1.333107997373E+00 4.510388312838E+02 -7.325347768192E+02 -1.055078878672E+01 -1.297922498717E+01 -1.475127246074E+03 -1.778130090757E+01 -1.814895388925E+01 3.200782798303E+01 2.650900392094E+00 3.303634413739E+01 5.826360384448E+01 8.788378382938E-02 -2.877507026029E+01 2.816196097162E+03
 -2.753533595202E+00 -4.063903812868E+00 -8.184255186642E+01 -6.852145954227E-01 3.333349889047E-01 -9.180253442432E+00 1.177867385706E+01 -9.841520284111E+00 -8.615345928976E+01 3.406389401001E-02 -1.990315731819E+01 -8.575056070217E+01 7.576559192642E-01 -1.038341387672E+00 -6.680462001725E+00 3.829984733483E-01 -3.878304951984E-01 7.364327594260E+00 -9.677462836902E+00 3.387263207671E+01 1.993437820392E+02
 -1.879029569510E+00 -2.987173912918E+00 -5.644122869507E-02 -1.215260260383E+03 -4.251134156843E+02 -1.429742533799E+01 -2.203642335342E+00 -5.302996719404E+00 -2.465827418608E-01 -1.225597127315E+03 4.301042761227E+02 3.432592462856E+00 9.147005468368E+00 -1.613301877541E+01 -5.763624407740E-01 3.734853941724E+01 1.299100375895E+00 4.913237769162E-01 4.339214944620E+01 6.468276573291E+00 8.038178265924E-01 2.795561548590E+03
 5.162528969492E+00 3.780934495327E+00 -5.960442337540E-01 -4.292856443097E+02 -7.046739210844E+02 -1.205574862632E+01 -2.639595952520E+00 1.141851865274E+01 -3.422022606087E-01 4.473187237929E+02 -7.059297038652E+02 -8.668301344847E+00 -1.357852523929E+01 2.497960995270E+01 5.847695434685E-01 -6.824663235737E+01 8.694350187583E-01 -8.266154624079E-01 7.080641284621E+01 -1.819863949474E+01 6.325667807209E-01 -6.856697819488E+00 2.793331404864E+03
 -4.754998893083E-01 -4.254634607421E-02 -1.037045280329E+01 -1.646809977362E+01 -9.949280286125E+00 -8.253410959302E+01 1.001601030515E+00 -4.314965689455E-02 2.098289607199E+00 3.256064597710E+00 -9.207128429334E+00 -8.120236115259E+01 -2.354966268300E-01 8.620165438556E-02 1.252326647829E+01 3.454102938016E-01 -1.182944882919E+00 5.695502565905E+00 1.042079560901E+00 1.132787512430E+00 1.463187349495E+01 1.627736912757E+01 4.620581385342E+01 2.113979669424E+02
 -1.863817896779E+00 -1.625117510668E+00 -1.948112741702E-01 2.381244990332E+00 1.195676090037E+00 3.921390428076E-01 -1.198157393426E+03 -4.098145728761E+02 3.362569621647E+00 1.142400877297E+00 -9.419783752139E+00 2.234678163816E-01 -5.246389631046E+02 -9.865858878035E+00 3.999809815824E+00 2.721573944108E-01 -3.425485221756E-01 -3.176846432234E-01 -2.094430485990E+01 -2.611826455117E+01 -1.810018524444E-01 -1.163373970820E+00 4.136679158943E+00 7.617928843538E-01 2.775992935411E+03
 4.764159674787E+00 5.061503302007E+00 -2.556096913098E-01 -6.306637382153E+00 2.921074064395E+00 -1.138245197798E+00 -4.150372149117E+02 -6.855368544268E+02 -4.870566632793E+00 5.371237688713E+00 3.050493491813E+01 5.931746487909E-01 -1.837733017622E+01 -1.605528969588E+03 -2.502334243164E+01 -7.825035005837E-01 -2.492681024232E+00 2.702769714810E-01 3.485465553485E+01 4.080296300317E+01 -2.145615626327E-01 1.503436325529E+01 -1.569658877751E+01 -2.939583498980E+00 -2.044510810182E+01 2.931563830914E+03
 -2.430841959910E-01 -4.458109548116E-01 1.555238091902E+00 1.608364859356E+00 7.447038182117E-01 1.074379693611E+00 3.413076382843E+00 -5.477462418276E+00 -8.859283381199E+01 9.867219414876E-01 -3.165341466133E+00 -6.160892706342E+00 5.628936895574E+00 -2.928926767434E+01 -7.254884650800E+01 -2.060548692570E-01 2.522762454494E-01 -6.708059579378E+00 -8.441582112690E-02 2.886138203283E+00 1.389762375472E+01 -1.402394024662E+00 2.704826429878E+00 5.818108980249E+00 -2.373112314820E+01 4.527624783165E+01 2.067950507291E+02
 -3.333232466718E+00 -1.365271201889E+00 5.900897964456E-01 3.592132424598E+00 4.582484947874E+00 1.316599167234E+00 6.384681727628E+00 -5.578308463156E+00 5.913310441178E-01 -1.191180502341E+03 -4.303230090374E+02 -6.370298008431E+00 -1.313510848618E+03 4.996198919583E+02 1.405297252685E+01 9.545218546003E-01 -1.626216715863E+00 6.685705903501E-01 3.620221742434E+01 1.107809044235E+01 -1.133598271468E+00 -1.617418692324E+01 -2.727663106568E+01 -3.434817907661E+00 4.586903377417E+01 -1.816139961874E+00 -2.114083870812E+00 2.878555491044E+03
 2.207881310116E+01 1.702381747104E+01 -1.900983630527E+00 -2.117901055191E+01 -4.868585992266E+00 -3.427229064010E+00 -1.606989635613E+01 4.729732401574E+01 -1.794181065768E+00 -4.025530671220E+02 -5.781330135232E+02 -6.506726307585E+00 4.506947605726E+02 -7.231566378137E+02 -1.068492103880E+01 -6.343369269612E+00 1.275048447535E+00 -1.305781265050E+00 -6.398901057364E+01 -7.851455754675E+01 3.504835318746E-01 5.637308996724E+01 1.408530673493E+00 -1.274703079424E+00 1.017424427239E+02 -5.623720597342E+01 1.026009409141E+01 -4.591547586135E+01 2.603412923667E+03
 6.042394389515E-01 -3.506500938279E-02 7.249337469656E+00 -1.260162355891E+00 6.165906460364E-01 5.070612856063E+00 -7.279433147855E-01 3.096890682086E+00 -4.053734278634E+00 -4.509179213047E+00 -4.907159966113E+00 -8.684509127226E+01 1.099417434233E+01 -9.762132308164E+00 -8.616699788454E+01 -8.482738481608E-01 3.516501291443E-01 7.041063334893E+00 4.895197833814E-01 -3.624139864510E+00 3.047928544526E+00 -2.841757527086E-01 1.098276703228E+00 -9.871081405106E+00 1.125907899907E+00 -3.392251689970E+00 -8.573678702752E+00 -6.006212278074E+00 4.319505663154E+01 2.146172349934E+02
 -9.886910923467E-02 -1.118020619797E-01 4.655504300743E-02 9.865209416589E-02 7.227168296767E-02 1.295087226048E-01 8.077768990574E-02 -2.659694081209E-01 -3.266107614723E-02 9.661715931130E-02 -6.188604276218E-01 5.092803977101E-02 1.699270967301E-01 -3.566711344151E-01 7.447740720379E-02 -3.609891959338E-02 3.493815602577E-03 7.475863135787E-02 8.251287130848E-03 5.162225123061E-01 -4.738001579516E-02 -2.096342201038E-01 3.122452165910E-01 -3.000627347773E-01 -1.412907138197E-01 1.450467989004E-01 2.749204695105E-01 -1.231751664137E-01 1.278748285726E+00 -2.935484700450E-01 2.810088718885E+03
 -5.657850117240E-02 -1.819111609979E-01 1.006702704364E-01 1.876728656983E-01 -7.632545979956E-01 -2.306418151497E-01 -4.398474017508E-01 -5.181610120562E-01 7.721847708505E-02 -7.222178278722E-01 -1.264838964814E+00 -3.772208796399E-02 9.798042416575E-01 -1.541624988475E+00 -1.121441267295E-01 2.589124277858E-02 3.198369774108E-01 -1.084999720666E-02 7.319606642602E-02 1.981016443875E-01 8.238881065156E-02 -1.436201401425E+00 3.089244898678E-01 5.411659117656E-01 7.236491299627E-02 2.060035764930E+00 -3.542619955012E-01 1.126244740252E+00 9.680849525459E-01 4.723711383561E-01 2.034340583628E+00 2.799844070927E+03
 1.600554329393E-01 2.585881498123E-01 4.533096572666E-01 -6.181208145362E-01 -1.810753784174E-01 -1.270893531252E-01 -7.580517740831E-02 7.399926838390E-01 8.535491864204E-01 -7.596113587862E-02 1.306077339075E+00 -7.790655572765E-01 -6.073283320213E-01 1.007472321032E+00 -7.372495020809E-01 -6.207326756141E-02 -5.212768454058E-02 5.653656538309E+00 1.427878438593E-01 -1.016241783901E+00 1.977957083594E-01 5.199181887604E-01 -4.878695021814E-01 2.040977175182E-01 1.652558173319E-01 -6.113808014818E-01 -4.413789948541E+00 2.874061447721E-01 -3.511909305818E+00 2.732979771742E+00 3.256784573356E+01 -5.111970326933E+00 1.951523377413E+02
 -5.475186309655E-01 -4.607636284110E-01 -1.651880096021E-02 5.882478434358E-01 2.143836241840E-02 1.183106572838E-01 2.603790610995E-01 -1.249008922680E+00 -5.909719637750E-02 -4.502814293242E-01 -3.043060415564E+00 -1.664854818077E-02 1.494109467446E+00 -2.729664747203E+00 -1.912377649580E-02 1.458130264347E-01 -1.546411997154E-02 -8.669589466980E-02 -9.082735503605E-03 1.865453164874E+00 -6.096896659457E-02 -7.844522751891E-01 1.318230857313E+00 3.081844169111E-01 -4.965627065459E-01 1.810465603051E+00 -1.518061428571E-01 -4.100574209449E-01 5.724649161547E+00 1.212575614187E-01 4.159314825206E+01 7.170555337937E+01 4.658965574222E-01 2.782675478663E+03
 -2.668663364112E-01 -3.547094097094E-01 4.074773601065E-02 5.396706889827E-01 -5.421532621249E-01 3.936012890994E-02 -1.487481199023E-01 -9.607977495105E-01 7.551275272717E-02 -5.395458624160E-01 -2.524342571502E+00 -6.443329335497E-03 1.478209997210E+00 -2.562374846870E+00 -2.518256590215E-01 2.799499838293E-02 3.806151260063E-01 7.352695876651E-02 -9.333535462499E-03 1.196280991851E+00 -3.592488735833E-02 -1.685702940246E+00 1.341546157987E+00 3.081387068261E-01 -1.625629377751E-01 2.347477603666E+00 -1.034256874376E-01 7.302155055542E-01 4.616200193315E+00 7.564079356082E-01 -9.856912085492E-01 -1.984306900745E+00 2.514446422830E-02 2.772137473868E+02 2.858217888636E+03
 8.302681379488E-02 1.514061776801E-01 5.017232564321E-01 -5.297027710797E-01 -1.661530702290E-01 -6.975900554542E-02 -6.924555768679E-02 4.938990265540E-01 8.687400596872E-01 -2.141095846552E-01 8.344831468157E-01 -8.455276688051E-01 -4.096413599064E-01 5.154220658001E-01 -8.899095655981E-01 5.955631350778E-02 -1.202491369049E-01 1.221847490124E+00 1.875469156195E-01 -7.312837015621E-01 7.242185901291E-02 3.793555744846E-01 -4.137952706241E-01 8.037077149481E-02 7.879185960480E-02 -1.436314577846E-01 -4.682283413051E+00 3.252387204582E-01 -2.700713929436E+00 3.147793411431E+00 1.656449133920E-01 1.034794773995E+00 1.205334059931E+01 3.997537955234E+01 -9.366192211727E-01 1.508939763820E+02
 -2.004202491742E+01 -3.417477537484E+01 -5.715623690836E-02 3.916027894645E+01 -4.194269512530E-01 -4.149662486316E-01 -3.676105617638E-01 6.318437562063E-02 9.534891731444E-02 5.352517821081E-02 2.808954711563E-01 2.500742184425E-01 -1.954766616513E-01 2.435113384608E-01 -6.488549921665E-02 -1.245778476453E+03 -4.347298611673E+02 -7.643549103798E+00 6.097999448470E-02 -2.734107980535E-01 -1.314957001237E-02 -3.633455739322E-01 -2.926966204002E-02 -4.937579445193E-01 2.382171870669E-01 2.004666554045E-01 5.597611662776E-01 5.045295098592E-01 -2.367087937696E-01 2.878936540339E-01 -1.936808677095E+01 3.387250157000E+01 -4.673254275541E-01 -3.120006443800E-02 4.263870066789E-02 -2.501079265626E-01 2.779062200083E+03
 3.592020118417E+01 6.052846527817E+01 5.118582394272E-01 -6.767777082242E+01 -8.904526136530E-01 -3.261704771212E-01 -6.791554514786E-01 -5.234584848491E-01 3.062760584305E-02 -1.199649140237E+00 -1.478877256361E+00 -2.632095952947E-01 1.532651963455E+00 -2.111435857711E+00 -4.548042207587E-01 -4.397567995302E+02 -7.229277272926E+02 -3.733766850232E+00 3.420925218951E-02 -2.605251857961E-02 2.716162876676E-01 -2.070658642060E+00 7.835070252704E-01 8.737286792464E-01 3.469556309484E-01 2.930943695364E+00 -1.902724083689E-01 1.899434993411E+00 1.140897450286E+00 1.059577618876E+00 -3.246222743648E+01 5.684864314614E+01 2.129693749616E-02 -2.252161572591E-01 -4.453026598365E-01 2.160160611230E-01 1.928743058315E+01 2.801382453022E+03
 3.499523603746E-02 5.386575659410E-01 9.764910628552E+00 -8.568350144087E-01 5.271719489174E-02 9.018048933930E+00 7.512716304821E-02 3.466100416790E-01 -3.502106590578E-01 1.431405183710E-01 9.554209497312E-02 1.098892694572E-01 1.775008825306E-02 1.348955340504E-01 8.319562855936E-01 -6.844873021350E+00 -4.684217173450E+00 -8.324981497557E+01 -1.837663991619E-01 -2.499597768758E-01 5.313185729974E+00 3.793741838286E-01 8.878452948265E-02 5.908909071891E+00 5.606218974752E-02 -4.471593787869E-01 4.881662543767E-01 -3.706246234809E-01 -4.564516032138E-01 -1.431179046444E+00 -1.972236017639E-01 6.426206137132E-01 8.915671067630E+00 -4.843986049541E-02 -2.849370377711E-02 1.691411197488E-01 1.860847003309E+01 -3.798225337349E-01 1.914568616796E+02
 -4.617571675632E-01 -4.132470030194E-01 1.026074814169E-01 -1.913441900802E+01 -3.227481515421E+01 -3.152721991118E-01 -6.127402601837E-02 -1.294211073308E+00 7.035942518355E-04 -1.660810226301E+00 -3.386745715883E+00 -3.080266193708E-01 1.948142049595E+00 -3.063319019979E+00 -1.518522412861E-01 3.793190113193E-01 5.346077910517E-01 1.772364667501E-01 9.770324492603E-02 1.040282941212E+00 1.606882458712E-01 -1.502343260194E+00 1.447102685947E+00 1.129439889501E+00 8.702913490474E-02 2.905234696358E+00 -1.150471412088E+00 1.223959076620E+00 4.332796325120E+00 7.804497463145E-01 3.945406743902E+01 -6.964399983587E+01 3.378910840990E-01 -2.307153928842E+01 3.969334837164E+01 -1.017362933941E-01 3.975018115652E+01 6.635966608148E+01 7.877367386518E-01 2.771724878556E+03
 -5.042268919886E-01 -5.707071446703E-01 -5.137549331271E-02 3.468622294160E+01 5.545522337441E+01 9.608962075760E-01 1.761410822224E-01 -2.027230793151E+00 1.740936872878E-01 -6.786001922801E-01 -4.683273320354E+00 2.451183972795E-02 2.409380687936E+00 -4.159050037348E+00 -5.639989617351E-01 9.740990556743E-02 1.477861644392E-01 3.964420470317E-04 -1.315869295546E-01 2.756868344735E+00 -5.236642553651E-01 -2.037645237324E+00 2.409898879217E+00 -5.840967126326E-01 -4.834357021988E-01 3.248480604118E+00 1.952018773236E-01 2.766899768299E-01 9.675196269375E+00 1.426607512114E+00 6.473529647408E-02 -2.527456678646E-01 4.164605795042E-02 -4.262143346385E+01 7.375262553661E+01 -1.025772234071E+00 -2.646062368409E-01 -6.035546563855E-01 -3.319892556876E-01 -3.850938395000E+01 2.756386979400E+03
 -7.577997880603E-01 -2.333332788937E-01 -1.738445852085E+00 1.353676599423E-01 9.990197489714E-01 8.378915864242E+00 4.472194444215E-01 -4.319569868645E-01 -3.713933675310E+00 2.195144457339E-01 -1.782748059139E+00 2.398856847868E+00 1.610782305294E+00 -2.296058973809E+00 6.323914094632E+00 6.615047278135E-01 1.283660626939E-01 -1.304457079810E+01 -1.408042153083E-01 1.506958860169E+00 4.054443016038E+00 -1.351173685427E-01 9.553002699238E-01 1.203434962459E+01 1.731929755386E-01 -2.771192097083E-01 1.208031361482E+01 -2.558026532336E+00 6.059129044954E+00 -1.406692533129E+01 3.293398813461E-01 -5.967745781746E-01 8.095988354915E+00 -5.862978185702E-01 4.098741187365E-01 1.083830550696E+01 3.457792694270E-01 2.299194386095E-01 9.828881355426E+00 4.241110963511E+01 6.340426687071E+00 1.943182155717E+02
 5.810770020683E-01 5.309839386605E-01 -2.538844625707E-02 -8.236342522226E-01 -3.124684637541E-01 -1.840410258326E-01 -4.386291223992E-01 1.377640951114E+00 -4.853689991450E-02 -1.895585761596E-02 3.197506414939E+00 1.329782306091E-02 -1.415500130316E+00 2.695050489403E+00 3.352266267706E-02 -6.865352460554E-02 4.749597782286E-02 -1.730543255225E-02 8.393257913908E-02 -2.421762061206E+00 1.885060377326E-01 7.890895383642E-01 -1.556398266223E+00 2.917161584914E-01 6.840592302078E-01 -1.473169321548E+00 1.378765276236E-01 8.084786341402E-01 -6.920326508981E+00 -1.416246298300E-01 -1.235585538717E+03 4.332397705301E+02 -1.509007476848E+01 -5.077344073584E+02 -1.555585644256E+01 -5.656354022771E+00 -1.621334654002E-01 2.119229080508E-02 5.702833274711E-02 1.928712181895E-01 2.226972560691E-01 3.907200533852E-01 2.842793991731E+03
 2.406172462938E-01 3.676282155878E-01 -9.943435449425E-02 -2.655300260902E-01 9.496183339266E-01 -5.284596865651E-03 4.016637093295E-01 8.997702029000E-01 -1.157764032665E-02 9.748601538495E-01 2.554233924902E+00 9.812710234565E-02 -1.640823926418E+00 2.712724309676E+00 2.473104288131E-01 -7.396260085591E-02 -4.832531836652E-01 -9.979026385599E-02 -8.512305947804E-02 -7.518691094482E-01 -1.364024006756E-01 2.092703080367E+00 -1.086612530520E+00 -7.049984211085E-01 2.086662734700E-02 -2.978931604010E+00 2.353888667160E-01 -1.382603120523E+00 -3.246716666380E+00 -7.086331949194E-01 4.353503864370E+02 -7.296723120329E+02 6.846163204833E+00 -2.550261762379E+01 -1.541069688973E+03 2.830597961345E+00 8.913679678808E-02 5.003463572607E-01 -1.137657497451E-01 5.870212944056E-01 3.717252773172E-01 2.914220053883E-03 2.971316621845E+01 2.892129184149E+03
 1.293928352440E-01 8.269704114219E-02 1.309526496799E-01 1.018582390850E-01 -2.206325747955E-01 -7.636573222318E-01 -4.162210736504E-01 -3.101826170730E-01 5.876187619226E-01 -5.407862208774E-01 3.864323908565E-01 2.538131800667E-01 -7.544120457253E-02 4.670739966394E-01 -6.078194131920E-01 -6.149063603452E-02 8.849271757167E-03 2.755022794804E-01 -2.369403955376E-02 -4.387032512795E-01 -1.071932667244E+00 1.694343675518E-02 -9.451266629709E-01 -1.216041104502E+00 8.140351950812E-02 3.528646983616E-01 -6.311640405680E-01 4.679411784410E-01 -2.107094910642E+00 7.148533966828E-01 -1.466216911642E+01 6.689756854288E+00 -8.574534136386E+01 -5.996024502985E+00 3.279611992976E+00 -7.758240620031E+01 1.167584038301E-01 -2.987842395985E-01 3.999510356088E+00 -6.619676650549E-02 1.976770093776E-01 -1.198079619871E+01 3.264274295772E+01 -5.771446680580E+00 1.860900005804E+02
 -1.380107729077E-01 -4.772715437117E-02 1.582497052731E-02 2.056778196408E-02 -2.290094433382E-01 -1.442699747745E-02 1.121170221433E-01 -1.813399169112E-01 1.792686809359E-02 2.982249520917E-02 -3.177142713677E-01 -1.727420325856E-01 3.761931885667E-01 -5.126042656928E-01 -1.561895723084E-01 -1.954541149012E+01 3.442626477284E+01 -2.627776767137E-01 -1.912160566259E-01 4.263199144557E-01 1.315038399369E-01 -1.327984482973E-02 2.458026227150E-01 9.279925502874E-02 -6.599907310473E-02 2.138879974580E-01 -1.588173333853E-01 -3.084324877945E-01 1.087331761827E+00 2.682804077163E-01 -1.220879924934E+03 -4.258347448412E+02 -1.308352992862E+01 -7.511137291671E-03 1.264887190618E-01 2.154045773697E-01 -1.175709200551E+03 4.230383747502E+02 -9.426887511790E+00 -4.737516092200E+02 -6.884626539668E+00 -5.549025323711E+00 -1.969653546536E+01 -3.403310340882E+01 -6.326256100651E-01 2.755019180679E+03
 -3.858602308673E-01 -1.136027601533E-01 -1.847473047353E-02 -3.025308490984E-01 1.600074477857E+00 4.479882424554E-01 1.025024360297E+00 -8.764115126454E-02 -1.922463886754E-02 1.164238292942E+00 5.839339249682E-01 1.389268530028E-01 -9.832901193799E-01 1.156326436328E+00 3.080621236095E-01 -3.284988762418E+01 5.731910362320E+01 -4.956178564077E-01 -1.622777879900E-01 1.228842889807E+00 -3.903863962395E-01 2.634174353795E+00 -5.734775535015E-01 -9.262727697932E-01 -7.562325164726E-01 -2.800306743550E+00 -1.181191162492E-01 -3.144575879755E+00 1.097931312013E+00 -1.119286366039E+00 -4.293543951646E+02 -7.138980028543E+02 -5.752771710699E+00 3.834429168839E-01 4.929739728331E-01 -2.492021283068E-01 4.244405931836E+02 -7.119867168190E+02 3.025436537740E+00 3.414110712052E+00 -1.496683377101E+03 -3.419337230876E+00 3.442148975436E+01 5.900335017993E+01 9.187040930641E-01 2.508567626829E+00 2.805593263222E+03
 -3.422143044954E-01 -2.395896233978E-01 4.360346922572E+00 6.640369600180E-01 -1.577806327010E-01 -8.292343669613E+00 2.495405678235E-01 -2.421317572852E-01 -4.623367872617E-01 3.997092455476E-01 -1.472369118282E+00 3.201714650233E-02 7.210074168648E-01 -1.174074973736E+00 1.609615043717E-01 -4.522286610384E-01 2.376323507820E-01 8.538102977772E+00 -1.285755529058E-01 9.071831906712E-01 3.029300923049E-01 -7.559587990692E-01 1.272875442944E+00 1.493703268110E-01 -3.015818347448E-01 4.350933071709E-01 1.826340397702E+00 -2.710044299178E-01 3.694060700537E+00 -6.876905465837E-01 -1.354550112360E+01 -5.240323175703E+00 -8.258790264107E+01 -1.636957802767E-01 9.105313011880E-02 -1.069224275529E+01 -9.079328455180E+00 3.665847493484E+00 -8.028301798095E+01 -5.911233078486E+00 -3.654117379741E+00 -8.174882447393E+01 -4.003538212293E-01 -7.240676182461E-01 9.238661974958E+00 2.735457933436E+01 5.297245643918E+00 1.912660205777E+02
 5.185523869060E-02 1.015497219177E-01 -1.530283431522E-02 8.513743215612E-03 7.832421379344E-01 -1.356506721687E-01 2.790587615286E-01 4.692217999708E-01 -9.057258354258E-04 9.641191070195E-01 1.506400153905E+00 1.818786660810E-01 -9.923818641738E-01 1.507108412299E+00 1.593961154243E-01 -9.352122528608E-02 -3.500095077252E-01 -7.669463373720E-02 -8.408789884544E-02 -3.136350924466E-02 -7.875707540088E-02 1.312030492938E+00 -8.428667583291E-01 -6.516579252952E-01 -2.537554950391E-01 -1.915372597405E+00 5.492561881149E-01 -1.487963365040E+00 -1.554167561170E+00 -7.128472708794E-01 -5.149174642984E-02 2.884422459846E-01 -2.436227934500E-01 -1.504884585535E+03 -5.288439130999E+02 -2.229753214866E+01 2.008800531904E-01 5.937258790050E-01 -1.405056678910E-01 -1.277980503678E+03 4.347532982386E+02 -1.877947353301E+01 4.894981653073E+01 -1.492751496099E+00 1.070471430085E+00 3.943165606643E+01 -6.924304398610E-01 7.359563219406E-01 3.072825040668E+03
 9.517540807080E-01 7.616196275757E-01 -7.621701059613E-02 -1.248970859095E+00 -1.042796929649E+00 -1.171220164615E-01 -1.006388109639E+00 2.115012252526E+00 -1.649090461456E-01 -4.568672160519E-01 4.124855983546E+00 -5.642279472284E-02 -1.630229392114E+00 3.358129668903E+00 2.147645822145E-01 -1.398467205474E-01 4.484147018324E-01 -1.055674127760E-02 2.723201595094E-01 -4.008333210647E+00 6.314769580600E-01 -2.530717250195E-01 -1.651924732166E+00 1.092026142075E+00 1.292906031458E+00 -9.704889308242E-01 2.979730448178E-01 2.786938663168E+00 -1.033841209917E+01 -3.792304921970E-01 1.405946548692E-01 -1.942914692208E-01 -2.065550487390E-02 -5.385397822320E+02 -8.658702163732E+02 -6.994144016692E+00 -2.820463587106E-01 -3.102792034222E-01 2.127164752083E-01 4.188772870776E+02 -7.260976836353E+02 7.117861050998E+00 -8.607364883199E+01 2.072692365820E+00 -1.893769510388E+00 7.227208636644E+01 5.881772408678E-01 1.575492536135E+00 9.153166698068E+01 2.538883866256E+03
 4.970750262035E-01 4.187731624458E-01 8.817797955598E-01 -4.195180159578E-01 -2.677428141389E-01 4.333911517715E+00 -5.856207058036E-01 7.920164987355E-01 1.963831611716E+00 -1.502255826770E-01 2.534005997874E+00 -1.113759578705E+00 -1.560797636521E+00 2.817258982180E+00 -3.615290150856E+00 -1.759083730115E-01 -3.617503610587E-02 2.141630684663E+00 1.641935630262E-01 -2.010385357073E+00 -2.710353950885E+00 2.525130519702E-01 -1.511006608686E+00 -5.195168086969E+00 1.925958102505E-01 -7.524561965411E-01 -5.688108712969E+00 1.612257232522E+00 -6.470357563623E+00 7.324892820427E+00 4.387602169596E-01 1.467133579169E-02 -1.003886884009E+01 -2.190090675762E+01 -6.696199838851E+00 -6.979814286833E+01 -4.861650077843E-02 -4.929778822127E-02 3.842175762017E+00 -1.917330974749E+01 7.055908329244E+00 -8.160364564613E+01 3.871246026808E-01 -2.424542730949E-01 1.214569471768E+01 6.666229074130E-01 4.831309701711E-01 9.363801557510E+00 4.552524237956E+01 -3.506391810386E+00 1.544157911163E+02
 8.231153040685E-01 4.501090579277E-01 -2.186479701963E-01 -1.231297776301E+03 4.438521372474E+02 -7.189072240709E+00 -1.247662856653E+00 1.591388674149E+00 -4.704418197722E-02 -3.992724186742E-01 3.011867533206E+00 3.307723907440E-01 -9.929223294420E-01 1.821220602627E+00 -1.597431800435E-01 3.976941941417E+01 -2.880919899284E-02 1.254575890932E-01 4.690082578551E-01 -2.997487136458E+00 3.832180233832E-01 -2.135805939359E+01 3.367632258488E+01 1.129609482130E+00 8.918465521002E-01 1.272061725996E-01 7.495569035295E-01 1.678067202232E+00 -7.029872914427E+00 4.537533083448E-01 1.604467139682E-01 -3.233776117361E-01 -5.957393335071E-02 -6.386442839332E-02 -6.498479984501E-02 -2.452469154301E-01 -6.247536962949E-01 -4.732400722296E-01 -7.626994629200E-02 -1.137414245282E+03 -3.909418360891E+02 -1.677188951938E+01 -1.557465377241E-01 2.210957219000E-01 -1.996405985560E-01 3.692850699309E+01 1.025973240853E+00 8.333520081963E-01 -1.726115713405E+01 -3.300215558267E+01 -8.857484453493E-01 2.738851833378E+03
 1.407694919000E+00 1.082348590703E+00 -1.093752214777E-01 4.519399500030E+02 -7.354516584356E+02 -3.776340386662E+00 -1.153223196551E+00 4.674618355924E+00 -3.702937265902E-01 1.588587991114E+00 1.029612603588E+01 3.591325252964E-01 -5.740337385169E+00 9.819549821949E+00 1.314701202539E+00 6.647888014868E+01 -1.027618916014E+00 2.505871928110E-01 7.000121518390E-01 -6.636976984954E+00 4.780191043840E-01 -3.099083876363E+01 5.435273759938E+01 -9.920950660361E-01 1.111602984323E+00 -6.345511773489E+00 8.706794075388E-01 1.715354924010E+00 -2.424737320552E+01 -5.290744849063E+00 -8.723350002927E-02 5.463905501206E-01 -2.597029192179E-01 5.918467282000E-01 6.202597090550E-01 -1.332791840604E-01 1.227400547180E-01 1.266139423209E+00 4.819958701786E-02 -3.883961501758E+02 -6.665710247272E+02 -1.002527445676E+01 -2.376029126285E-01 -8.561986143245E-01 7.744398551446E-02 -6.450714752345E+01 -9.949647310446E-01 -7.539647234829E-01 3.054952425911E+01 5.718083863115E+01 -7.084241594718E-02 -1.015489344417E+01 2.809736451508E+03
 6.570875487836E-01 1.988062467661E-02 4.993536239486E+00 -5.554851261116E+00 -4.007451690949E+00 -8.170689747716E+01 -3.881328913850E-01 9.659812957268E-01 8.451495705810E-01 3.682798796083E-01 2.079790696046E+00 3.953284247774E+00 -1.549866520396E+00 2.661611306665E+00 -2.505284661110E+00 -6.684606028611E-02 3.450630638722E-01 9.664896171063E+00 1.486829395909E-01 -1.423746364622E+00 -1.887208448117E+00 -8.261402356064E-01 5.332020147522E-01 5.225226024771E+00 2.792737702131E-01 -1.157692747771E+00 -1.268301095811E+00 1.531029320585E+00 -4.048784306723E+00 4.226421396727E+00 -3.761819238280E-01 -2.369549805441E-01 4.022987022053E+00 3.432937479148E-01 -2.479985216397E-02 5.254946666358E+00 6.865172057414E-01 4.571228939070E-01 -9.343844665850E+00 -1.857434102841E+01 -9.468439307621E+00 -8.290515130388E+01 -2.849984064946E-01 3.976245384884E-01 3.265408124988E-01 7.152509312841E-01 -5.695001254587E-01 8.174027386387E+00 -7.727643187429E-01 -1.053810914810E+00 1.112821869892E+01 2.839745690788E+01 3.851666073571E+01 1.885622608416E+02