#BIOSYM hessian 1
@Type: Hessian Update
@Units
 distance: 	A
 energy: 	Kcal/Mol
#header
@natom 68

#label
C1      C2      C3      C4      C5      C6      C7      C8      C9      C10     C11     C12     C13     C14     C15     C16     C17     C18     C19     C20     C21     C22     C23     H24     C25     C26     C27     C28     C29     C30     C31     C32     C33     C34     C35     C36     C37     C38     C39     C40     C41     C42     C43     C44     C45     C46     C47     C48     C49     H50     H51     H52     H53     H54     H55     H56     H57     H58     H59     H60     H61     H62     H63     H64     H65     H66     H67     H68

#element
C  C  C  C  C  C  C  C  C  C  C  C  C  C  C  C  C  C  C  C  C  C  C  H  C  C  C  C  C  C  C  C  C  C  C  C  C  C  C  C  C  C  C  C  C  C  C  C  C  H  H  H  H  H  H  H  H  H  H  H  H  H  H  H  H  H  H  H 

#matrix
204
 2.783281548291E+03
 -2.131269495764E+01 2.815435649895E+03
 1.576967658918E+01 -8.911642205479E+00 1.926165349264E+02
 3.776753063497E+01 5.984186887441E+01 -3.658811152199E-01 2.719425262729E+03
 -4.652866997367E-01 -5.812400201168E-01 -9.800556556746E-02 -1.447993381786E+01 2.758796362464E+03
 -1.580949768774E-01 3.982052836868E-01 8.494897219040E+00 2.662253851896E+01 -2.695889353830E+01 1.935090799614E+02
 -2.238751474534E+01 3.162012596647E+01 -9.919704974134E-02 -4.161111634196E+01 3.569978670069E+00 1.662896110581E+00 2.767249485241E+03
 -3.375800827356E+01 5.850881796589E+01 -1.460164217297E-01 -9.262632807286E+00 -9.234800620690E-01 6.516294475202E-01 -2.997915840660E+01 2.813384039807E+03
 -9.730167909502E-02 3.441021200738E-01 9.626370146100E+00 -2.668403440304E-01 1.756247806305E-01 -3.682926184040E-01 9.831937189967E+00 -4.189927703436E+00 1.949973300593E+02
 3.287931882953E+01 -7.561192663523E+01 6.615590598772E-01 -1.047947962275E+02 4.040154447118E+01 8.310611666876E-01 -1.550486629891E+01 6.545901935551E+01 -9.022022705624E-01 2.679404646527E+03
 2.491897820346E+00 4.563945681778E+00 5.123719377606E-02 2.371499793432E+01 5.688829100664E+01 -2.495974404758E+00 4.031116099805E+01 2.960967606992E+00 5.230927661405E-01 5.191656969469E+01 2.781528689849E+03
 1.809932030222E-01 -3.840762627620E-01 9.330481020116E+00 -1.566064047736E-01 1.038539221319E+00 6.073255358364E+00 -3.665207363187E+00 -7.033726288212E-01 9.577424798725E+00 2.443085704311E+01 -6.324746056348E+00 2.008236215146E+02
 -1.810417518339E+00 -1.657560002294E+00 2.282646181667E-02 -1.498383125166E+01 3.508637369807E+00 -4.643305694917E-01 1.314092878799E+01 -6.913915151709E+01 2.107417346585E-01 -4.991178212176E+01 6.003861404025E+01 -4.497863743481E-01 2.608757423136E+03
 5.831198706718E+00 7.568603957816E+00 -1.455736640804E-01 8.836177602133E+01 -6.622409305553E+00 -1.458649855859E+00 7.126635233466E+01 -5.508929134160E-01 8.051597093306E-01 7.991432283730E+01 -1.599456538681E+01 4.697739652166E+00 -1.943855985537E+02 2.776429549063E+03
 3.019485328397E-01 1.185540865110E-01 -2.769359805958E-02 1.004135106507E+00 -1.138531307667E-01 1.296696588843E+00 9.446888038282E-01 5.863772485527E-02 1.003148812324E+01 1.789876138959E+00 -1.166141612109E+00 8.473468157850E+00 6.194544975394E+00 -1.745516311784E+00 1.558803579105E+02
 -1.228809156825E+03 4.485791993796E+02 -8.370503734538E+00 -4.574995617812E+02 -9.972492420064E+00 -2.967507197693E+00 3.655331471129E+00 6.057590218588E-01 5.913311823015E-02 5.982577873111E+00 -4.455729227780E+00 7.091935003084E-01 1.387513424295E+00 -7.242935248299E+00 -4.145302835119E-01 2.820641358501E+03
 4.426313903920E+02 -7.416470583550E+02 6.289906408458E+00 -5.439427708729E-02 -1.432794772526E+03 1.274366904396E+01 3.734157488170E+00 1.421926950048E+00 -6.265922233349E-02 1.039864654275E+01 -5.173806850780E+00 -1.829083851036E-01 9.534452996937E-01 -8.794545695939E+00 -2.193142842855E-01 -1.829846675036E+00 2.780204189665E+03
 -9.144305933496E+00 6.078094431257E+00 -8.339792999104E+01 -3.901164518138E+00 1.242280050907E+01 -8.114204626123E+01 -5.046602972643E-01 -2.082499789896E-01 4.822458483842E+00 -8.459698692583E-01 7.236970939594E-01 -8.329080024119E+00 4.859631918742E-02 9.049882352504E-01 -2.968631539413E-01 1.376770618636E+01 -2.095403310203E+01 1.921846038758E+02
 -1.190756821926E+03 -4.100284111808E+02 -5.678234153702E+00 3.969790597727E+01 -1.684587323213E+00 -1.503213975821E+00 -1.233226421951E+03 4.480348211580E+02 -6.419244872582E+00 -4.200048807358E+02 -3.963040464406E+01 -5.942283784833E-01 1.548199505060E+01 -5.484076169396E+01 -1.574553254545E+00 -2.220668719446E+01 -3.812890464064E+01 4.750869107118E-01 2.782490967359E+03
 -4.146961849363E+02 -7.008660941116E+02 -8.700276704987E-01 -4.384114106361E+01 3.280513504768E+00 4.311136426625E-02 4.154301611265E+02 -7.629620845987E+02 3.370571293611E+00 -6.205184991098E+01 -1.475556858388E+03 2.788129705691E+00 -1.346251729557E+01 6.257181514729E+01 1.400542114087E+00 3.731994400987E+01 6.285054781640E+01 -3.968919905661E-01 -5.376541389708E+00 2.823572865175E+03
 -5.097957252339E+00 -7.192262746721E-01 -8.091535601132E+01 -3.240922507640E-01 4.331784433127E-02 -8.680303732927E+00 -7.267455926606E+00 4.302727897714E+00 -8.721099947220E+01 -3.611661913484E+00 2.724104118983E+00 -8.334318171549E+01 3.181619388214E-01 -5.397619575480E-01 -9.736292994785E+00 -5.521034338727E-01 -4.999185799409E-01 8.540533890379E+00 1.526508547566E+01 -6.569963791909E+00 1.954134584879E+02
 2.299399573881E+00 9.247270934939E+00 -4.474218268177E-01 -1.121575622292E+03 -4.263364242813E+02 -9.445095189325E+00 5.584065683544E+01 1.020846283510E+01 4.211394859472E-01 -1.120400059888E+03 3.589915871545E+02 -1.371548704561E+01 2.406056271717E+01 -1.169027597243E+02 -1.361891721805E+00 2.951148395999E+01 -1.001763058863E+01 1.171564568345E+00 -9.995141619137E+00 5.723083551253E+01 9.324154765611E-01 2.663170115125E+03
 -2.607115120993E+00 -2.275287814435E+00 7.220832589733E-02 -4.615468668616E+02 -6.953524653538E+02 3.208651893432E+00 -4.327017957069E+01 3.559152055441E+00 -7.217709355363E-01 3.696665733646E+02 -7.047088640500E+02 6.822001068124E+00 -3.019776444193E+01 7.645251025425E+01 1.031774040709E+00 -6.243001525044E+01 2.529201656179E+00 -1.276942714275E+00 1.005095785680E+02 -3.244611067017E+01 1.613740200825E+00 5.398315862786E+01 2.761121401985E+03
 3.364270388121E-01 -3.514840510517E-01 -9.091525699640E+00 -6.134665290247E+00 2.660498688268E+00 -8.359039510903E+01 -1.193985114749E+00 -2.798810980176E-01 5.439857979581E+00 -1.671253617825E+01 1.127178818478E+01 -8.344396423306E+01 9.060773517043E-01 4.739658348237E-02 3.802032002573E+00 7.020554431904E-01 -7.434443694537E-02 9.595540378654E+00 1.525872849221E+00 6.093739865475E-01 8.838213177503E+00 2.747473187662E+01 -3.351074816911E+01 1.965021719519E+02
 3.706826748672E+00 1.881296070275E+00 9.253692407397E-03 2.123881219498E+01 -6.131636370938E+00 2.704407907711E-01 -1.149921443688E+03 -4.193015981890E+02 -1.766548996446E+00 4.763655855946E+01 -3.621779157170E+01 1.925494571423E+00 -4.626404708226E+02 -4.330789406654E+01 -1.131272793139E+00 -2.460381402453E+00 -1.127502292106E+00 -1.000965763863E-01 -4.576310601539E+01 -7.622863296273E+00 -5.715595013362E-01 -3.564578947760E+01 5.596738096183E+01 -7.877546280367E-01 2.719177525181E+03
 -5.152019858969E+00 -6.503791754263E+00 6.125520093649E-02 -6.335408715101E+01 6.730741087380E+00 3.373043704115E-01 -4.820106420723E+02 -6.909564056258E+02 -4.975114111037E-01 -8.936610570658E+01 6.585074961494E+01 -2.533355653656E+00 -1.142474327424E+01 -1.523025291041E+03 3.594804701346E+00 5.287805124795E+00 6.499476446955E+00 -4.212696735766E-01 7.909626867876E+01 1.114274133135E+01 2.415022639992E-01 8.678500288094E+01 -6.992059805335E+01 4.290152566787E-01 5.264162054782E+01 2.852283300291E+03
 -9.861246890136E-02 -6.842249790970E-01 4.405955685682E+00 -5.416187672236E+00 5.796560622076E-02 -1.273735058287E-02 -3.918635830377E+00 -4.943640517983E-01 -8.243748532229E+01 -5.192513465036E+00 3.192703618839E+00 -9.821880862739E+00 -1.759510847707E+00 8.891654454885E+00 -7.421286676338E+01 3.930712224082E-01 5.948060023914E-01 -4.654042217121E-02 2.239439896135E+00 -3.030876137511E+00 9.598466826777E+00 6.799053297879E+00 -1.710763412360E+00 8.600409939975E-02 8.910713203950E+00 -1.060963219772E+01 1.858179803642E+02
 2.794394001783E+00 3.728376041898E+00 -1.264528676210E-01 4.539611637537E+01 -1.297661696000E+00 -1.617950419631E+00 2.621330738734E+01 4.453068632493E+00 4.763851518157E-01 -1.145118371000E+03 -4.545571729624E+02 -4.438360042650E+00 -1.325021287436E+03 4.263425244134E+02 -5.371864396974E+00 -3.784519294702E+00 -4.806318707763E+00 8.443980011170E-01 1.149129834680E+01 2.896799996053E+01 1.568305439803E-01 -7.339351488121E+01 -4.425007696806E+00 5.485483685410E-01 2.529778501666E+01 4.655500086598E+01 2.908639037646E+00 2.782480417505E+03
 -5.928764938795E+00 1.115184952042E+00 -1.430403635077E-01 -5.134205785256E+00 6.522355775191E+00 9.890420108615E-01 -4.691482103519E+01 1.507098150044E+01 -5.331568057921E-01 -4.492858896346E+02 -6.586418208055E+02 -8.360023506049E+00 4.387633221671E+02 -7.669372859295E+02 -1.864661537619E+00 1.967738086301E+00 -7.764056784239E-01 4.226778330294E-02 -4.313716469410E+01 -2.546616798374E+01 5.533354364448E-01 5.198215570573E+01 -4.705806551004E+00 -4.995702005231E-01 1.709939567357E+02 -7.798165525749E+01 7.969434368162E-01 -2.944886639000E+01 2.731194907473E+03
 -2.812523885594E-01 -5.410470145458E-01 4.247875155070E+00 -4.595914452332E+00 -1.030380904840E+00 8.456303386422E+00 1.669639247167E+00 5.730484518391E-01 -1.086128925747E+01 -9.983258184484E+00 -4.167428008499E+00 -9.037273017360E+01 -2.448370520333E+00 -1.370889828385E+00 -7.676941259522E+01 -4.887519361664E-01 9.334767506911E-01 -1.011224259180E+00 2.066328109626E-01 -1.611115220816E+00 1.087634420178E+01 3.864103848636E+00 8.705858606648E-01 4.259646279370E+00 -2.966424312697E-01 -1.523417479519E+00 1.131750143580E+01 1.148229065902E+01 2.918849948516E+01 2.226621204626E+02
 -1.974757284384E-01 -1.278737682265E+00 7.512938252722E-02 -1.371218795928E+01 3.988130733001E-01 -2.136877909788E-01 -5.848061048544E+00 -2.086517742686E+00 -3.509227806808E-03 -1.389067998218E+01 9.018876903604E+00 9.135942223404E-02 -1.326817828737E+00 1.337159366655E+01 1.555414627554E-01 9.265684320504E-01 1.495315230502E+00 -1.422515176086E-01 6.353019784202E+00 -7.042720996336E+00 -8.992520868158E-02 1.699206546562E+01 -4.879411296523E+00 2.848556194236E-01 1.074077388459E+00 -8.847415844147E+00 -9.920155795327E-01 7.353905894567E+00 2.645274996752E+00 -9.666085260556E-01 2.808948771059E+03
 -5.132950518048E-03 -3.210274374988E-01 -3.442383066347E-02 -3.708037694093E+00 -4.428566174476E-02 -1.678194076511E-01 -1.068166435786E+00 -7.002062962479E-01 2.238518159739E-02 -3.602030959410E+00 2.352999959301E+00 1.562459193979E-01 1.643921600744E-01 3.329436197113E+00 6.621445861039E-02 2.527964590249E-01 3.574956012268E-01 1.153715203274E-01 1.638573815886E+00 -1.906554345132E+00 -5.413778602182E-02 4.760238215827E+00 -9.151773451199E-01 2.437587959640E-01 -5.326647417493E-01 -2.051781020097E+00 -2.788894963913E-01 2.466740109563E+00 1.720982535312E+00 -5.614330150135E-01 1.294094185248E+00 2.799482053396E+03
 3.295440670878E-02 2.795218174337E-04 -6.211700606449E-04 2.428414109822E-01 1.011816510024E-02 6.436327438647E-02 1.433963990129E-01 5.122473416861E-02 -7.430313031977E-03 2.675546059667E-01 -2.092008392729E-01 -9.331351112638E-02 -3.495713008055E-02 -2.812039367763E-01 2.964732850712E-02 -2.923179040486E-02 3.528633052495E-02 4.484157601274E+00 -1.537664203417E-01 1.657575678853E-01 1.269727517808E-02 -3.174991943019E-01 1.000371832191E-01 -6.770708781817E-02 5.695887842886E-02 1.533202254311E-01 1.765548067428E-02 -1.640370133811E-01 -7.949606546083E-02 1.287361985797E-01 3.133193039745E-01 -2.806072366112E+01 1.940415296797E+02
 4.089780257332E-01 8.231982980705E-01 2.448046945472E-02 9.574292597908E+00 -4.777936904958E-01 9.743334909668E-02 6.018114823837E+00 7.594763805489E-01 4.980621452628E-02 1.141227261026E+01 -7.726650862770E+00 1.320486397077E-01 2.803875223698E+00 -1.239424730683E+01 -1.578905310551E-01 -7.664159684891E-01 -9.419776150671E-01 9.654997700352E-02 -5.450083497545E+00 5.996206276512E+00 2.712750584155E-02 -1.236075266507E+01 6.215646966745E+00 -1.790827143051E-01 -4.669066210457E+00 9.659563781059E+00 6.101322225604E-01 -6.109667518360E+00 3.466963951443E+00 5.601992534697E-01 4.315005011439E+01 7.179134460785E+01 -1.000236272729E+00 2.781346264184E+03
 4.769582154932E-01 1.051049994735E+00 -2.640778774598E-02 1.161613838159E+01 -5.587141694246E-01 -1.263085233210E-01 7.254030954863E+00 9.483878100735E-01 7.041922135225E-02 1.368318807484E+01 -9.085675038108E+00 2.419057267268E-01 3.502081049930E+00 -1.470781607580E+01 -2.027539965096E-01 -9.098866773394E-01 -1.192010541652E+00 1.197771160733E-01 -6.529315726110E+00 7.115213722037E+00 1.162029489603E-02 -1.487909321513E+01 7.143782038281E+00 -1.075533935642E-01 -5.570632868918E+00 1.132745462344E+01 7.683129374219E-01 -7.018108071050E+00 3.905804382334E+00 4.634287134854E-01 7.947009053346E-01 -1.537364359328E+00 7.614799835755E-02 2.778512187769E+02 2.857421335769E+03
 -1.240191170893E-02 -2.487337349521E-02 1.071271745338E-02 -2.138613966150E-01 1.705330839025E-01 -5.614570328718E-01 -6.040113146757E-01 -1.617528801332E-01 9.553653981267E-02 -6.390493944295E-01 6.783575833919E-01 8.678635139189E-01 4.723447576770E-02 7.489354712633E-01 -3.320359421406E-01 1.030427546036E-01 -7.372063824287E-03 1.328534536845E-01 5.524839245949E-01 -3.108573189931E-01 -9.367007591959E-02 4.380515779954E-01 -6.190932964350E-01 5.800359398015E-01 5.403511017092E-02 -3.882007028238E-01 -1.995260299910E-02 5.989339185303E-01 -3.077494875989E-01 -1.053802272293E+00 -5.235113224473E-02 1.572757089544E-01 1.084426421825E+01 -4.082703107680E+00 -3.361874042825E+01 1.497667929963E+02
 -2.074507375605E+01 -3.538974600014E+01 1.672944997512E-01 2.445830131101E+01 4.223684010820E-01 2.587168940671E-01 -8.773713538270E+00 -1.379129382773E+00 -5.723438012589E-02 -1.659365850701E+01 1.150774228835E+01 -4.609880082716E-01 -3.976955432383E+00 1.840125252682E+01 3.837241577479E-01 -1.246173029241E+03 -4.325939443564E+02 -2.424963308801E+00 7.863918302558E+00 -8.690054777889E+00 3.299886969639E-02 1.877446459632E+01 -9.416865854818E+00 2.550300286564E-01 6.566204675456E+00 -1.407125255802E+01 -9.166942793317E-01 9.447150004244E+00 -5.046287253714E+00 -5.354155268190E-01 -2.155829012863E+01 3.388357996323E+01 -2.626036056202E-01 1.764241217494E+00 2.204504271841E+00 -8.193765500862E-02 2.773440422955E+03
 3.673567395796E+01 6.203241008753E+01 -2.594609970306E-01 -5.274169792154E+01 -7.663114153174E-01 -2.647826900116E-01 9.752466587993E+00 1.142953247379E+00 1.426047485302E-01 1.746085363980E+01 -1.191569098811E+01 4.099925324013E-01 4.717401983700E+00 -1.899414965703E+01 -1.655854737475E-01 -4.396890957925E+02 -7.237054948028E+02 2.753277625601E+00 -8.198809088397E+00 9.104493486192E+00 4.423124355523E-02 -1.947045195385E+01 9.764441661828E+00 7.494242653999E-02 -7.404969995062E+00 1.436243467306E+01 9.675591751542E-01 -8.474488321565E+00 5.321794812107E+00 2.999499974506E-01 -2.965964809526E+01 5.821820943410E+01 -7.001638694216E-01 -1.995395407824E+00 -2.343637904329E+00 1.329412934298E-01 2.464341413105E+01 2.803634171018E+03
 -1.808826286044E-01 -5.525844011534E-01 9.854573443815E+00 1.238754876428E+00 2.359667440651E-01 8.914480950819E+00 -3.618505512684E-02 -1.920016905471E-02 2.707917337306E-02 8.350502830644E-02 2.872588269668E-02 2.421798341002E-01 -4.895728127792E-02 -6.254004822432E-02 -1.022071950821E-01 -2.842347041447E+00 2.517267590659E+00 -8.282591548068E+01 -1.040435580489E-02 1.571467989924E-01 4.514262522373E+00 -3.292744781989E-01 -1.684822958162E-01 4.616191660624E+00 1.272701501047E-01 6.597773798828E-02 2.406389125112E-02 3.894230219768E-02 -3.337491085610E-01 -2.727527537777E-01 4.103442301092E-01 -6.889703690749E-01 8.836809237709E+00 7.344963462005E-02 2.575378580880E-02 4.148303944099E-02 1.026536782753E+01 -1.885437824965E+01 1.913404070503E+02
 1.187000215497E+00 8.156395957360E-01 4.892014542112E-02 -8.893515460543E+00 -3.275812607253E+01 -2.019682658616E-01 1.200445314263E+01 -1.205896749725E+00 2.279448541173E-01 1.636517189081E+01 -1.163612552544E+01 1.249707877615E+00 8.672936971142E+00 -2.121742573834E+01 -4.655433018970E-01 -1.226449445495E+00 -1.313239498377E+00 1.314229466369E-01 -8.393397836216E+00 8.788867635334E+00 -2.027935829543E-01 -1.366905640358E+01 1.437310140005E+01 2.300655069309E-01 -1.650693024512E+01 1.970572928260E+01 3.839570897101E-01 -8.208434517604E+00 1.942352101763E+01 -6.561198356211E-01 4.060935010653E+01 -6.905914480149E+01 9.555295671803E-01 -2.456379475239E+01 3.884856850645E+01 -3.283546877965E-01 4.183412615992E+01 6.458821714254E+01 -8.093709271029E-01 2.768324418604E+03
 7.214434764993E-01 5.553416014172E-01 1.213016718160E-01 4.251758357956E+01 5.590577262454E+01 -1.054227672710E+00 9.133012060924E+00 -6.019343980345E-01 1.815569228149E-01 1.340459411696E+01 -9.117826620539E+00 8.268758547955E-01 6.486936842871E+00 -1.626381873276E+01 -2.008581700746E-01 -6.543700276866E-01 -3.822527076565E-01 3.629464189912E-01 -6.588517856377E+00 7.200850283139E+00 -7.033996038646E-02 -1.183531464406E+01 1.021919822977E+01 4.621582782749E-01 -1.164967841441E+01 1.451127093137E+01 4.140000643210E-01 -5.960057871316E+00 1.280768810567E+01 -4.013923012977E-01 9.619839222659E-01 5.593083990128E-01 8.891125243303E-02 -4.292607996417E+01 7.237432801571E+01 -7.155185701516E-01 1.955019744701E+00 -2.714055109246E+00 1.726419327008E-03 -4.241082705142E+01 2.755269149951E+03
 1.678154714944E-01 -1.650476247145E-02 2.272641590967E-02 -6.902944812695E-01 -9.455105888223E-01 6.997531150077E+00 -1.249502612202E+00 -4.705352324783E-01 2.194335821016E-01 -1.228919944505E+00 1.288903004522E+00 2.104649090930E+00 1.845769229073E-01 1.426588524961E+00 -8.060818237854E-01 -3.546260784343E-02 -4.038339561097E-01 -8.547248604966E+00 1.109222246352E+00 -5.049381396760E-01 -2.284396204522E-01 8.848059745979E-01 -1.145128070209E+00 5.726273346897E+00 -6.915383766175E-02 -5.391391323530E-01 -1.234018616174E-02 1.388863935225E+00 -6.239293163887E-01 -2.540718654849E+00 -1.781015708059E-01 1.065646927027E-01 9.469407945880E+00 5.965777073061E-01 -8.362607641449E-01 1.269691829930E+01 -1.868468326243E-01 7.304996017512E-01 8.936848669180E+00 6.152645918634E+00 -3.118859376166E+01 1.860472069402E+02
 -1.031148409338E-01 2.712812521364E-01 -5.834879066348E-02 2.555521905314E+00 1.433431588983E-02 -4.471211366672E-03 8.661798608014E-02 7.375863216853E-01 -2.063609417008E-02 1.757352585377E+00 -9.203585288628E-01 -6.570342366098E-02 -7.240464648846E-01 -9.326282190153E-01 -2.461772568326E-02 -1.026399520223E-01 -3.115723036340E-01 -3.152185854859E-03 -6.709207670947E-01 7.765919497935E-01 2.501442948266E-02 -2.965717703359E+00 -6.000051782286E-01 -3.377860646783E-02 1.825316905321E+00 -1.132497159504E-01 2.271527531087E-01 -8.642247483689E-01 -3.307566091262E+00 1.872939119129E-01 -1.230914869613E+03 4.359341465611E+02 -4.592686681695E+00 -5.059373627822E+02 -2.138338647638E+01 6.094312558993E-01 3.584586337404E-01 -3.191886631451E-01 -1.731936679472E-01 8.558955088887E-03 -2.071265114823E-01 1.341969970589E-01 2.842186046026E+03
 -4.757699176546E-01 -1.067295438790E+00 6.443028813871E-02 -1.164416767270E+01 6.523351651309E-01 1.331267883435E-01 -7.380942601276E+00 -1.005188417079E+00 -6.348330279632E-02 -1.374231366959E+01 9.094232853047E+00 -1.593587621831E-01 -3.474060909623E+00 1.468364278412E+01 1.546828043712E-01 9.205645894432E-01 1.199564343468E+00 -8.327232020854E-02 6.587076329522E+00 -7.083149006460E+00 -9.503016650210E-03 1.489852580267E+01 -7.080454248144E+00 1.377639523715E-01 5.457078029610E+00 -1.120372395085E+01 -7.796938591448E-01 6.853352651170E+00 -3.737071414473E+00 -4.943845593785E-01 4.357712847404E+02 -7.351726010712E+02 7.350839247242E+00 -2.947727344259E+01 -1.539335953805E+03 1.843989129804E+01 -2.314352514933E+00 2.239957870088E+00 1.322953663315E-01 1.439442598856E+00 1.755784620969E+00 -7.955847960800E-02 2.977462077827E+01 2.891020343503E+03
 2.688856663245E-02 2.369668698331E-02 -1.030308526131E-02 2.371908658750E-01 -1.630556254234E-01 4.783184130664E-01 5.893110635195E-01 1.260444748603E-01 -8.597364568269E-02 6.490441736279E-01 -6.544409113811E-01 -7.541986055583E-01 2.153236166107E-02 -7.588116040734E-01 2.935387318618E-01 -1.025432680543E-01 1.577858806660E-02 -1.135042960845E-01 -5.213685788807E-01 3.171296358539E-01 8.035658286552E-02 -4.556637970464E-01 6.091710323394E-01 -5.007349763288E-01 -1.584331512119E-01 4.594200162753E-01 2.059555857196E-02 -5.664504124686E-01 3.435848118811E-01 9.185948362371E-01 -4.588514057205E+00 7.086163076291E+00 -8.522055720351E+01 6.820441453491E-01 1.854971352463E+01 -7.714964830772E+01 1.225176184775E-01 -6.507255942207E-02 4.468008671298E+00 -2.183644465372E-01 -2.267095672136E-01 -1.077372996777E+01 -2.534091315982E+00 -3.366015327194E+01 1.846243907296E+02
 3.622509998680E-01 1.393289084999E+00 -1.914328652711E-01 1.589890521008E+01 -9.924818824010E-01 2.515086981975E-01 8.538788591528E+00 2.003937388164E+00 4.848632194316E-02 1.756984870442E+01 -1.171602569424E+01 1.455184661176E-01 3.034251574422E+00 -1.814000147506E+01 -2.603130347354E-01 -2.065451367801E+01 3.348437101169E+01 -3.516432722404E-01 -8.132688341468E+00 9.041749091206E+00 2.917959690720E-02 -2.075241152096E+01 7.857139216620E+00 -2.508670343033E-01 -4.155285440509E+00 1.293257014782E+01 1.152062408861E+00 -9.329199788172E+00 6.176779655572E-01 7.947505868680E-01 -1.223318543154E+03 -4.222194333740E+02 3.554386597537E+00 -2.113597712759E+00 -2.679787946355E+00 3.674808747742E-02 -1.170344811315E+03 4.195736875708E+02 -6.830028193018E+00 -4.703613350129E+02 -1.602530609296E+01 8.032768550698E-02 -1.990437415817E+01 -3.105749926550E+01 2.753792806562E-01 2.749679974461E+03
 -6.337520116435E-01 -7.095530429993E-01 2.180894612129E-02 -7.347803941484E+00 1.429897092608E+00 3.690145688042E-01 -7.819609062203E+00 6.475113241402E-01 -2.001621905814E-01 -1.077722118134E+01 7.305350229527E+00 -9.770717276810E-01 -5.837292485802E+00 1.319862345999E+01 2.204933338465E-01 -3.202874935100E+01 5.925766540669E+01 -8.389985804170E-01 5.330397046654E+00 -5.546540256009E+00 1.191553930125E-01 9.161387689265E+00 -8.682634919984E+00 -5.956141844378E-01 1.032775466735E+01 -1.189226511230E+01 -3.219578445810E-01 4.184058437598E+00 -1.139005915479E+01 9.047082742395E-01 -4.269049043194E+02 -7.106666961199E+02 6.853106848252E+00 1.110677680554E+00 1.327906442783E+00 -3.433659380218E-01 4.225274007804E+02 -7.174821753309E+02 7.347425083087E+00 -3.062551271137E+00 -1.495069687730E+03 1.659454713153E+01 3.466536806308E+01 5.862448371227E+01 -2.655276659398E-01 9.427175727439E+00 2.806913969130E+03
 1.195183014764E-01 -2.473194821173E-02 4.572946787564E+00 -4.110206851261E-01 1.059121171702E-01 -9.199625049291E+00 -2.935344703012E-01 -1.891920386462E-01 5.921311059069E-02 -5.155998770449E-01 4.414345173531E-01 5.296337239744E-01 6.748040196302E-02 4.654180619534E-01 -1.954610951673E-01 2.240476091950E-01 2.706960400032E-02 8.980708251442E+00 3.560006953461E-01 -1.650958470839E-01 -6.028790169666E-02 5.290183025819E-01 -3.307701738935E-01 3.571983255280E-01 -1.182479155209E-01 -1.538066019516E-01 -2.879562866845E-02 4.891133436292E-01 9.325393599327E-02 -6.566238509016E-01 3.725672251256E+00 6.751391994494E+00 -8.261115840236E+01 1.025564376452E-01 -2.046265639668E-02 -1.035095569103E+01 -7.191599411311E+00 6.774958911926E+00 -8.074801024724E+01 -3.871630207452E-01 1.741496088408E+01 -8.178430707033E+01 -3.926903174539E-01 -5.444265728027E-01 9.661890833662E+00 3.536660116639E+00 -3.064131811983E+01 1.908960475465E+02
 -7.549125925301E-01 -1.278160754753E+00 -3.629456952322E-03 -1.459298985911E+01 9.272127889843E-01 1.100117198342E-01 -1.043393470260E+01 -6.797485999615E-01 -1.282102816876E-01 -1.828244428185E+01 1.235829645216E+01 -6.126916361598E-01 -5.788346003997E+00 2.067688151998E+01 3.373900754028E-01 1.180950234202E+00 1.450568318397E+00 -1.730991655563E-01 8.828011064556E+00 -9.674027841026E+00 3.305360569344E-02 1.912381665946E+01 -1.111609064155E+01 1.582028213121E-02 9.912703746571E+00 -1.672391249984E+01 -8.543378324171E-01 9.590456903839E+00 -9.049109842111E+00 -3.544637986329E-01 -2.439999384901E+00 -6.056108682975E-01 2.906478539030E-02 -1.506285417646E+03 -5.235972935685E+02 6.549831489946E+00 -2.779631477092E+00 3.057515076814E+00 -1.343436835005E-02 -1.272767357595E+03 4.392203837622E+02 -7.457092610173E+00 4.885934614045E+01 -3.604550983096E+00 1.157322602201E-01 4.199009091397E+01 -2.407508577837E+00 -2.907509649351E-02 3.071692197013E+03
 -9.692777273734E-03 -3.293137657277E-01 -2.345697909652E-02 -3.127003434457E+00 1.176491290331E-02 -1.418144634655E-01 -1.109302453434E+00 -5.601554649298E-01 2.373464294317E-02 -3.080389561056E+00 1.998020096598E+00 2.123377104188E-01 -5.413732889917E-02 2.840261375286E+00 -2.804874159743E-02 2.563933531779E-01 3.763901275513E-01 -1.838407271133E-02 1.434104364127E+00 -1.554319484904E+00 -5.437913422355E-02 3.873026407461E+00 -9.786198571253E-01 2.066493670244E-01 -1.447512667721E-01 -1.750021874292E+00 -2.093166764868E-01 1.853484993933E+00 9.617277839610E-01 -5.193756787809E-01 -8.401947445061E-01 -4.254313667877E-02 -7.888752942416E-02 -5.360034770617E+02 -8.649453924951E+02 9.918354800866E+00 -3.964611153282E-01 6.094606222825E-01 -1.303616759707E-02 4.223422750733E+02 -7.238740677935E+02 8.475565551903E+00 -8.580643973095E+01 2.149269852865E+00 1.055532779374E-02 7.225114393632E+01 -1.093546221558E+00 1.675611008575E-01 8.581255000829E+01 2.536090941646E+03
 3.098368224841E-03 7.989894265135E-02 -7.946412587766E-03 4.604772553222E-01 -3.571313711213E-02 5.035476334064E+00 5.211883361846E-01 2.035680645852E-01 -6.532775566220E-02 7.370821301355E-01 -6.516112184665E-01 -6.360996652131E-01 -6.421105407737E-02 -7.639605270189E-01 2.351761642174E-01 -1.176424128089E-01 -7.818352462527E-02 -9.731285110663E-02 -5.349704566102E-01 3.377721992300E-01 7.120380584489E-02 -6.919832888578E-01 5.047692417377E-01 -4.372263291791E-01 5.518735722882E-02 3.632027234290E-01 3.319502749576E-02 -5.915195145839E-01 6.762164854743E-02 7.862107250658E-01 1.352073596275E-01 -6.928217368769E-02 -1.036130417337E+01 6.383334540855E+00 9.596455086409E+00 -7.049384900128E+01 6.384550244933E-02 -5.731593109800E-02 4.524423820460E+00 -6.701158922982E+00 7.963636673509E+00 -7.613456028029E+01 1.140257126625E+00 7.749033511891E-02 1.104319952359E+01 -1.016762626993E+00 2.755954270591E-01 9.586303006044E+00 7.631513739073E-01 -2.841573842456E+01 1.509684134102E+02
 4.495569897126E-01 2.312135665664E+00 -3.659154468722E-02 -1.209298229649E+03 4.429377603602E+02 -1.521866744307E+01 7.765809086112E+00 3.778424054269E+00 1.939166528425E-02 2.175408963777E+01 -1.320133856867E+01 -3.062969226046E-01 1.643319374434E-01 -1.885822840282E+01 -1.881088649591E-01 3.903843484927E+01 -3.352506503626E+00 9.487592974537E-01 -9.735777091949E+00 1.091204545342E+01 2.363179044422E-01 -4.566653499860E+01 3.927051478723E+01 -1.172943031340E+00 2.504679407928E+00 1.115646614774E+01 1.795254863694E+00 -9.595723851137E+00 -1.062757699298E+01 1.352431374966E+00 4.454851353188E+00 1.045323221120E+00 -1.316720664443E-01 -2.357548322629E+00 -3.107880928475E+00 7.878531105103E-02 2.907365103601E+00 -4.009697146450E+00 -2.195391643280E-01 -1.144258850828E+03 -3.865443017786E+02 6.934250161466E-01 -1.211562603378E+00 3.251721241722E+00 -7.705727510822E-02 3.212902381417E+01 1.140881828869E+00 1.646073208947E-01 -1.440108606903E+01 -3.142698964686E+01 9.327996251883E-02 2.717875155832E+03
 -3.513205185980E+00 -5.932194950756E+00 6.991125135808E-02 3.778058100373E+02 -7.372076174624E+02 1.387180910992E+01 -5.024518557680E+01 -4.179602274412E+00 -5.526511434513E-01 -8.995264583162E+01 6.034766697758E+01 -1.911323186891E+00 -2.630612716797E+01 9.923052786964E+01 1.142318225940E+00 7.241803476907E+01 5.813098184333E+00 4.392296893912E-02 4.304873165690E+01 -4.763143099007E+01 -4.880537932876E-02 6.031923077340E+01 9.060028471783E+00 -7.724726562263E-01 4.367209764909E+01 -7.897829142840E+01 -4.631033564285E+00 4.470041013090E+01 -3.611877903380E+01 -2.658754451721E+00 -1.166887014080E+01 -2.506615861869E+00 2.612682531975E-01 9.105292696656E+00 1.161652548832E+01 -3.752131637879E-01 -1.430735123766E+01 1.602397937567E+01 1.476694861096E-01 -3.697372703578E+02 -6.598283031908E+02 6.933455430696E+00 1.857253329648E+00 -1.208007163420E+01 4.625400004301E-01 -4.985529059451E+01 -9.494957159627E+00 -5.841597738186E-01 1.646195666914E+01 5.578702067609E+01 1.048272071931E-01 -1.224058522267E+00 2.744706257727E+03
 -9.627690836961E-02 5.644460140640E-01 4.641906494115E+00 -1.346544007106E+01 1.239570881854E+01 -8.278740477075E+01 2.415735825786E+00 6.857957263201E-01 -1.679708204047E-01 3.986890357542E+00 -2.930528480646E+00 3.182654102637E+00 4.406439195456E-01 -4.039220116644E+00 5.907894229179E-01 -3.211270178740E-01 -1.319081839466E-01 8.588935536047E+00 -2.384388211424E+00 1.638124816221E+00 1.887629814712E-01 -3.802199202496E+00 2.497371315093E+00 8.185436352460E+00 -8.406525744313E-01 2.591367796264E+00 1.935172094645E-01 -2.481142776145E+00 9.498273183178E-01 2.156443279677E+00 6.641692370626E-01 2.433947391197E-01 4.352530164769E+00 -5.491783588453E-01 -2.449373678129E-01 5.247506891360E+00 5.874516211360E-01 -1.013645865821E+00 -9.002880520141E+00 5.038500307720E-01 6.602949000060E+00 -8.189033153565E+01 -5.985483840348E-02 1.782867367660E-01 2.298032536099E-01 -1.373376393421E-02 7.775972733559E-01 8.215947142158E+00 5.296663663085E-01 -4.451450329799E-01 9.663775491919E+00 1.574163403113E+01 -4.668803364783E+01 1.875051405548E+02