#BIOSYM hessian 1
@Type: Hessian Update
@Units
 distance: 	A
 energy: 	Kcal/Mol
#header
@natom 67

#label
C1      C2      C3      C4      C5      C6      C7      C8      C9      C10     C11     C12     C13     C14     C15     C16     C17     C18     C19     C20     C21     C22     C23     H24     C25     C26     C27     C28     C29     C30     C31     C32     C33     C34     C35     C36     C37     C38     C39     C40     C41     C42     C43     C44     C45     C46     C47     C48     C49     H50     H51     H52     H53     H54     H55     H56     H57     H58     H59     H60     H61     H62     H63     H64     H65     H66     H67

#element
C  C  C  C  C  C  C  C  C  C  C  C  C  C  C  C  C  C  C  C  C  C  C  H  C  C  C  C  C  C  C  C  C  C  C  C  C  C  C  C  C  C  C  C  C  C  C  C  C  H  H  H  H  H  H  H  H  H  H  H  H  H  H  H  H  H  H 

#matrix
201
 2.782241655100E+03
 -2.123919670459E+01 2.809626323611E+03
 2.362133402944E+00 -2.151808252418E+01 1.928609684807E+02
 3.976053189497E+01 6.711898044173E+01 -1.025157934497E+00 2.779956098518E+03
 -4.341823540682E-01 -7.329723900564E-01 8.202710152456E-02 -2.712169570424E+00 2.760780227978E+03
 -9.483330591540E-02 -7.892845290316E-02 8.649968950519E+00 8.177705229131E-01 -3.902578536834E+01 1.905996100395E+02
 -1.964085348149E+01 3.467245397654E+01 -5.663510016818E-01 -4.525620756020E-02 1.891667233388E-02 -5.871966121101E-03 2.808626062224E+03
 -3.357149292419E+01 5.930880912869E+01 -8.023326171823E-01 -2.863652235890E-03 4.260976435652E-03 -7.199135724712E-03 -2.714813269083E+01 2.820483380492E+03
 3.153274998902E-01 -4.807125968691E-01 9.587723454086E+00 1.192562854011E-01 -4.629098993992E-02 -4.535960573989E-02 1.592508124257E+01 -2.932117835748E+01 1.959946645062E+02
 3.893217379284E+01 -6.884169913689E+01 1.053972468043E+00 -1.976839432730E+01 3.545151246118E+01 -6.796384231888E-01 4.190508101418E+01 7.164514885496E+01 -7.737756379607E-01 2.784561852667E+03
 -4.343239141203E-01 7.597538056810E-01 8.462853749840E-02 -3.328913695460E+01 5.974762289844E+01 -9.038334108049E-01 -4.559954588482E-01 -7.782730445096E-01 1.109906049933E-01 -1.912175804225E+01 2.832378786691E+03
 1.386975772350E-01 -1.646124883406E-01 9.396740548865E+00 5.537381244777E-01 -8.111970106178E-01 9.569828832507E+00 1.474458937462E-01 4.674200748125E-01 9.010206569920E+00 9.997532957298E+00 -3.533425941800E+01 1.950962486837E+02
 -6.438979836693E-03 -2.058420327509E-02 4.488982320107E-02 -5.277310962896E-02 1.349782037675E-02 -8.638327123991E-03 4.194423378881E+01 -7.358538216950E+01 1.284987206498E+00 -2.149925324833E+01 3.822068744718E+01 -7.416834898080E-01 2.633251915221E+03
 -1.590652154945E-02 -2.893732785427E-02 6.637505731253E-02 -6.938112653734E-02 2.604934303288E-02 -4.362875157852E-03 2.705505140978E-01 -4.961680647426E-01 1.189775281445E-01 -3.526560435933E+01 6.267950997698E+01 -9.508928896083E-01 -2.213294358504E+02 2.897665175343E+03
 6.032026322609E-03 -1.479589805178E-02 -1.583962146983E-01 -1.222859710339E-01 4.323804034963E-02 6.690941542797E-02 2.719011165387E-01 -4.347807011466E-01 1.029360842853E+01 3.724071756531E-01 -5.719649251365E-01 1.057781593067E+01 1.679776501418E+01 -4.063653574889E+01 1.558640773718E+02
 -1.225842811191E+03 4.461377642999E+02 -3.493496945216E+00 -4.642266874133E+02 -1.026024259646E+01 6.484560067871E-01 1.525578516742E-03 4.458271908850E-03 2.993770416012E-04 7.314141334800E-03 8.609284372368E-03 -1.005757112820E-02 3.435543249242E-03 6.123507158582E-03 -8.645321564330E-04 2.813113644133E+03
 4.419187939905E+02 -7.393676140320E+02 6.630267030094E+00 -1.134813440867E+01 -1.436061902607E+03 1.909404232848E+01 -1.441555553374E-02 1.463992304763E-02 7.821340329008E-02 1.200434479169E-02 -1.537017212077E-02 -1.103480541164E-01 -4.729891531135E-03 -1.363191067350E-03 -6.673794380799E-02 4.164624258120E-01 2.777876252678E+03
 -3.494528475256E+00 6.613581957219E+00 -8.313811961868E+01 5.263184790504E-01 1.894552874730E+01 -8.103245741925E+01 8.841108626494E-03 3.370987217989E-02 4.308014742220E+00 4.382126866598E-02 -9.115545607989E-02 -9.233445200560E+00 7.468046941024E-02 4.193485328667E-02 4.268068351792E-01 -8.016683970480E+00 -3.495962790500E+01 1.921346666560E+02
 -1.198494443596E+03 -4.130853645725E+02 1.483540676901E+00 5.562667588568E-02 -2.933828293176E-02 3.602748872512E-02 -1.253679364917E+03 4.452314103285E+02 -1.130289506982E+01 -4.856248030272E+02 -1.367739303133E+01 -1.461009136864E+00 1.699384365185E-03 1.475691929100E-02 7.538189565097E-03 -1.954177265783E+01 -3.297316726317E+01 1.978913783484E-01 2.817397296504E+03
 -4.133453643468E+02 -7.018931204565E+02 5.394386065554E+00 4.021548065662E-02 -1.395299974811E-02 -8.249137673270E-02 4.469331232019E+02 -7.445494299583E+02 1.025430257433E+01 -1.510910752351E+01 -1.515242169183E+03 1.840134563107E+01 -5.369019865031E-03 -5.797326609252E-03 -1.729619650288E-01 3.452948292058E+01 5.829288663051E+01 -4.307735616547E-01 -2.102670180004E+01 2.843929235511E+03
 1.495487328707E+00 5.355714161055E+00 -8.191785549511E+01 -1.287334550047E-01 -1.181822813789E-01 -9.118154951354E+00 -1.132946861148E+01 1.020682189006E+01 -8.560891898582E+01 -1.402144440635E+00 1.838985473414E+01 -8.535646834090E+01 1.305658296914E-01 -9.455832735028E-02 -9.678538169016E+00 -2.679229868651E-01 -4.374016677691E-01 9.229253569274E+00 1.110927219815E+01 -3.374524758477E+01 1.965502902863E+02
 2.034281610939E-02 5.097769719514E-03 5.821991227067E-02 -1.236483178497E+03 -4.259564580220E+02 5.904594786670E+00 2.743626069386E-02 -3.837138258345E-03 -1.461509999818E-01 -1.222034901016E+03 4.417348222950E+02 -9.775783565497E+00 4.975520590623E-02 5.185285401883E-02 1.148404107323E-01 3.762568199471E+01 -4.534146281244E-01 1.205245616328E-01 4.155782528604E+01 -4.900573985915E-01 2.541223076090E-01 2.817050681821E+03
 1.259509435124E-02 3.457848002102E-03 -1.081327383444E-01 -4.263572293700E+02 -7.100108284706E+02 9.815414213165E+00 -5.524946844256E-03 7.149219213139E-03 1.257564589772E-01 4.385309795182E+02 -7.362424404407E+02 1.113517682185E+01 -1.013556619241E-02 5.029848364855E-03 -1.286797772491E-02 -6.759735917588E+01 7.995359787815E-01 8.493266829979E-02 7.009880916531E+01 -7.496323608124E-01 3.558187259663E-01 7.165553797612E+00 2.799433918420E+03
 -2.524869190428E-02 -1.691229944890E-01 -9.325114939022E+00 5.925580330757E+00 9.974096422398E+00 -8.276675956443E+01 8.835620891872E-03 1.517275619435E-02 4.401423627477E+00 -9.798010944227E+00 1.123825779455E+01 -8.338606089008E+01 3.213065707072E-02 9.511312012141E-02 5.432887957611E+00 9.391943817470E-01 6.935787224773E-02 9.412811054465E+00 -7.917071221023E-01 8.052014514753E-02 9.772772136930E+00 4.511693711518E+00 -4.479507453447E+01 1.956521558496E+02
 5.364235700939E-03 2.444220087749E-02 -1.018050996417E-01 7.273396801242E-02 -1.015316289396E-02 1.646124634117E-02 -1.200806934249E+03 -4.087023136337E+02 -2.216683694441E+00 -6.453644362023E-03 -5.491392308751E-03 1.006896052032E-01 -5.217757484353E+02 6.439208873220E+00 -3.095694943712E+00 -3.253077878616E-03 1.323721051725E-02 -1.217880818400E-01 -1.975401620088E+01 -3.377307479222E+01 1.100491575041E-01 -7.213247448430E-02 2.153285252200E-02 -9.818426300695E-02 2.778545340956E+03
 1.099963401374E-02 6.259207986210E-03 8.742314033057E-02 -1.282201027195E-02 -1.881101842084E-02 -4.802523951094E-03 -4.168889482631E+02 -7.047902874120E+02 5.024281427045E+00 2.020607494565E-02 -4.663212604911E-04 -1.518892828764E-01 8.125008671308E+00 -1.634447416372E+03 2.307130227198E+01 1.971557820443E-03 -7.636650954771E-03 9.264054619507E-02 3.463901424510E+01 5.925691739058E+01 -2.816311152678E-01 3.174225358115E-02 -2.561453475355E-02 9.804575776353E-02 -2.877321216272E+01 2.959561201829E+03
 -2.069930786890E-02 7.810484838860E-02 4.798148556896E+00 1.420545831921E-01 -7.705705395369E-02 -1.251760931298E-01 -2.156658352244E+00 5.198232364199E+00 -8.298511468196E+01 6.759012354484E-02 -1.638624673760E-01 -1.002013244164E+01 -3.052151669530E+00 2.306053047538E+01 -7.885411194876E+01 2.410408915898E-03 8.123947099732E-02 -5.117511604783E-01 -5.126493313294E-01 -7.015492307087E-01 9.896771777829E+00 -1.300951281532E-01 8.241639365371E-02 -6.713109456531E-01 1.982626775155E+01 -4.026947226060E+01 1.840238451267E+02
 6.980100695865E-03 1.897902147991E-02 -5.345812979115E-02 4.726269243351E-02 -1.445189795613E-02 -1.522353864282E-02 1.780206041316E-04 1.554238959890E-02 1.052495212988E-01 -1.194251206165E+03 -4.149753542387E+02 1.142021166008E+00 -1.331986377356E+03 4.948281362405E+02 -1.328780049426E+01 -1.505715931881E-04 6.344512646856E-03 -6.634197192250E-02 3.863127104422E+01 -4.222818036460E-01 3.589743331029E-02 -1.936625296239E+01 -3.258093092785E+01 2.822787974078E-01 4.949277098678E+01 2.885436403651E-01 2.318447437171E-01 2.878061598853E+03
 6.323274642459E-03 1.483006102319E-02 3.937551146246E-03 4.504239862853E-02 -5.835737823657E-03 6.127162841024E-02 -9.109047512035E-03 6.428532008755E-03 -8.531866589377E-02 -4.066951002973E+02 -7.013255500904E+02 6.978645129700E+00 4.933894793465E+02 -8.223615663749E+02 1.311917401909E+01 -4.723467514728E-03 5.067666381227E-03 -6.711719068413E-02 -6.869574822158E+01 7.739379838597E-01 -1.652621011800E-01 3.430892081499E+01 5.792802623478E+01 -6.095994509315E-01 8.116075364430E+01 4.912139958049E-01 5.713626626444E-01 -9.632662939365E+01 2.850799006521E+03
 -3.843133759174E-02 3.309442802187E-02 3.909000655565E+00 -2.261825921447E-01 1.933359818761E-01 4.701992080605E+00 5.583291548643E-02 -1.791978444527E-01 -1.069628669371E+01 9.786976312426E-01 6.948587152376E+00 -8.285696836953E+01 -1.302804211251E+01 1.313957889187E+01 -7.722650416254E+01 1.460209049688E-02 -1.101381267114E-01 7.431374806078E-01 9.558117451637E-01 9.011139346896E-02 1.094971888996E+01 -3.755673211225E-01 -8.620783188424E-01 9.302234261113E+00 -1.093688873046E+00 2.001406160686E-01 9.521406603632E+00 1.399941827443E+01 -4.004882733734E+01 1.853367688877E+02
 -1.739345889961E-01 -2.296180732214E-01 3.344101786065E-02 -4.650957095659E-01 3.362801957381E-01 6.716604118716E-02 -1.438548809751E-01 -1.143985507869E-01 7.335482923724E-02 -1.630227327986E-01 -5.906587188928E-03 2.678267440299E-02 -1.722245214572E-01 -3.503110624383E-01 1.246169358244E-01 2.348829813809E-02 -3.353409659801E-02 -6.944317554111E-02 1.993739807939E-01 1.175860742074E-01 -4.275718769142E-02 1.701265199410E-01 1.241691996150E-01 -1.357960836346E-01 1.513873272176E-01 1.390262922076E-01 -1.444022773834E-01 1.640114699455E-01 1.585713046695E-01 1.124039290652E-01 2.743113142009E+03
 1.539044623237E-02 7.031238037314E-03 1.457494162584E-01 1.314971450912E-02 -6.450981097883E-02 -4.063894483109E-02 5.844581279037E-02 -3.256521464886E-02 -1.498706718982E-02 6.016599907229E-03 1.598144219743E-02 -4.619166512312E-02 2.942678021728E-02 1.746231813404E-02 2.922449193457E-02 3.360364213601E-02 7.405159275103E-02 1.478648694285E-01 -5.208674010606E-02 -2.023190863658E-02 2.444289708441E-02 5.362260401125E-02 -2.450507867765E-02 -6.743379542294E-03 -8.383250400502E-02 5.540956966708E-02 5.072822920886E-02 -2.288448139998E-02 -2.636405949239E-02 -1.459515082692E-01 8.184866909829E+01 2.715479436776E+03
 -2.981240144011E-02 4.361301255727E-02 -1.001551888808E+00 7.315048595764E-02 1.447912269978E-01 2.961980366620E-01 -1.801455239327E-01 2.304652774626E-02 -1.073696988330E-01 -1.279020949765E-01 -3.489941958388E-02 3.063105408276E-01 -2.016310464221E-01 -2.168093172900E-01 2.985094738288E-01 1.155817612102E-02 -1.046817672547E-02 4.626977291457E+00 7.979835598022E-02 1.772172222119E-01 7.138963386527E-02 -2.098909930259E-01 5.624547444989E-02 3.299399022700E-01 4.047303296306E-01 -2.731121634049E-01 -9.077252405935E-01 1.212545110179E-01 2.255350585654E-01 1.607523790203E+00 -4.383046951509E+01 -4.711235270734E+01 1.923518203446E+02
 -2.921968190657E-02 -2.597592439501E-02 3.166003841068E-01 8.548734467779E-02 3.764514447910E-02 -1.227247439276E-01 -1.075614103349E-01 1.177252708749E-01 5.691096899160E-01 5.547120072811E-02 -4.834079172833E-02 2.028270671503E-02 -5.880476909016E-02 1.236176904864E-02 -7.803287600285E-01 -9.011303824729E-02 -8.050377090180E-02 -6.543012948472E-01 1.519774854884E-01 3.184198911320E-02 -5.698821673165E-01 -1.937243785804E-01 1.358241426804E-01 -7.999289739388E-01 1.458576916671E-01 -1.104189539904E-01 1.057552215328E+00 6.417938019275E-02 1.570950149141E-02 -1.550885127241E+00 3.548359771297E+01 6.179200430928E+01 -3.501661468059E+00 2.826372717262E+03
 -9.404950465470E-02 -1.255609697886E-01 2.136316519113E-01 -2.033876041910E-01 1.814841072048E-01 -3.158977773115E-02 -1.062590419792E-01 3.080187368851E-03 2.548229979171E-01 -3.646277385771E-02 -2.338683505695E-02 -1.236187612347E-03 -8.132454077487E-02 -1.275329603660E-01 -2.726825525315E-01 -3.622060429125E-02 -8.149234143162E-02 -3.068903620367E-01 1.618131116531E-01 4.676136191366E-02 -2.398703838767E-01 1.652710479558E-02 1.080187126087E-01 -3.851964511007E-01 9.827545989994E-02 4.235596513224E-02 4.174714592024E-01 8.997817189229E-02 5.314392382020E-02 -6.634460342748E-01 -2.928324945704E+00 -2.254770037175E+00 -1.653966658082E-01 3.074297507615E+02 2.764156418974E+03
 5.080834609775E-02 4.471674752855E-02 1.329008631711E+00 2.958967676956E-01 -2.569819438913E-01 -4.365377909366E-01 9.387585536486E-02 6.001953560742E-02 1.066311508821E+00 1.373646698353E-01 -3.206503904521E-02 -2.137700762008E-01 2.744747094536E-02 1.022281094349E-01 -1.451220983435E+00 -1.676725078002E-02 1.738643390831E-01 -1.089504895643E+00 7.818953694925E-03 -5.883159712720E-02 -1.016671242812E+00 -1.687362876053E-01 1.418924169353E-01 -1.650447287551E+00 -1.235764880361E-01 5.962288373753E-02 2.368420975654E+00 3.470232687580E-02 -6.614798456546E-02 -3.788831304009E+00 -9.108718566979E-01 -3.908970884824E-01 5.442303332723E+00 -3.574969098697E+01 -8.349483978050E+01 1.575219388772E+02
 -2.017239827697E+01 -3.403596019305E+01 5.472512803313E-01 3.831050652861E+01 -4.390716540136E-01 -7.030201480857E-02 -9.479929258901E-03 -1.152692015730E-02 1.671877829078E-02 -1.731920167093E-02 -4.152421719275E-04 1.860535395789E-02 -2.251640099631E-02 -3.496063480550E-02 7.918483879730E-04 -1.242342099006E+03 -4.300609933293E+02 1.078031798903E+01 4.464587088955E-03 1.944368880587E-02 -1.621079543578E-02 -6.065173096270E-03 9.894843221839E-03 -8.496941842195E-03 2.715886628712E-02 -8.078854669707E-03 -1.900239352422E-02 1.621601983975E-02 2.475980248716E-02 2.214776538867E-02 -2.004861764051E+01 3.511422529537E+01 -1.382951565554E-01 1.588769743059E-01 1.027929147884E-02 -1.410338002629E-01 2.751078382217E+03
 3.570639634881E+01 6.026374580268E+01 -8.628952191501E-01 -6.785462338199E+01 7.899278884710E-01 3.283626897130E-01 -4.556233867134E-03 -2.144659337712E-03 7.602051741025E-03 -8.205755000389E-03 1.457675826415E-03 1.919222163402E-02 -1.064648551503E-02 -9.391739013066E-03 5.793902510012E-03 -4.362209254760E+02 -7.178078089143E+02 9.320620678916E+00 6.286019780780E-04 1.215174992025E-02 5.580331958426E-02 -1.317481911126E-02 -1.710957260248E-03 6.362460571056E-02 1.905959202903E-02 -1.363360067251E-02 -2.805109025608E-02 7.284415387853E-03 1.076854202624E-02 5.315281531082E-02 -3.336768391569E+01 5.903675194016E+01 -3.549628904858E-01 1.291061300371E-02 1.901708462683E-02 -1.392013644416E-01 2.521430409829E+01 2.797214310997E+03
 -4.346921862184E-01 -5.796046812707E-01 9.538510119513E+00 8.300157130744E-01 1.508148634020E-01 8.812688885789E+00 -3.599695631980E-02 -5.759523833000E-03 -2.298158760863E-01 -3.386299086581E-02 1.021785744684E-02 7.203132158172E-02 -1.998699012259E-02 -3.800573669775E-02 3.284145873411E-01 1.077676466813E+01 9.214038521702E+00 -8.206740376256E+01 -3.655120381355E-03 4.758306497122E-02 4.759976644219E+00 2.482673238449E-03 3.996999606347E-02 4.918383699579E+00 6.037622146941E-02 -4.171938303359E-02 -5.711964211865E-01 -6.795842667188E-04 3.308563794599E-02 9.257662910587E-01 1.257002957399E+00 -1.752793207960E+00 1.062153866585E+01 -6.159237146797E-01 -2.786647773073E-01 -2.016811585695E+00 -1.865267914886E+01 -2.344412815401E+01 1.898628896544E+02
 -5.267666707638E-02 -6.575064847024E-02 1.232908106960E-02 -1.948998620969E+01 -3.202769149988E+01 8.112032112603E-01 -6.873340098394E-02 -4.494384232001E-03 8.575101303295E-02 -3.476093813305E-02 -1.557779610538E-02 1.409161575234E-02 -5.543923857698E-02 -8.440428220153E-02 -7.815095919189E-02 -1.511352295846E-02 -5.430525078506E-02 -2.182145493233E-01 9.077937656707E-02 3.507703361768E-02 -8.081058114922E-02 1.840403384005E-03 5.391572626213E-02 -1.122538187265E-01 7.554265338610E-02 1.610470943901E-02 8.391772426715E-02 5.760738915468E-02 4.464858408903E-02 -1.199565035678E-01 3.897713525358E+01 -7.012133136576E+01 1.158840334445E+00 -2.327679896392E+01 4.081811767091E+01 -7.432821067306E-01 3.776769117249E+01 6.336322334760E+01 -1.805297426059E+00 2.774047413275E+03
 -4.998103609762E-02 -6.259534373577E-02 9.170132098216E-04 3.445540412607E+01 5.748635197227E+01 -1.131342112176E+00 -5.468719395557E-02 -2.019213495261E-02 7.257239400183E-02 -4.430157047779E-02 -9.186248506500E-03 2.409951327308E-02 -6.085699085998E-02 -1.034055752677E-01 -2.960007667381E-02 3.489804686221E-03 -2.374529341285E-02 -2.868155116451E-01 7.093561815577E-02 4.258215038986E-02 -7.065377248463E-02 2.054211489831E-02 5.253501196136E-02 -9.985554343950E-03 7.052874770516E-02 1.692878585328E-02 3.030294859927E-02 5.652568661672E-02 5.418059673051E-02 -6.581219540020E-02 -1.353644638592E+00 9.828694084627E-01 3.267582918257E-01 -4.137417541217E+01 7.433557753121E+01 -1.583609922789E+00 -5.367467059580E-01 -8.385923222342E-01 2.032233157488E-01 9.658210785557E+00 2.705721718717E+03
 -2.418078212134E-02 8.188430518591E-03 3.790323542525E-01 -5.699133550388E-01 -9.449672443165E-01 8.179706426082E+00 -2.113744290914E-02 3.103601360478E-02 4.905231322424E-01 1.193935387598E-02 6.603866214982E-03 -2.171686692327E-02 -5.340014774424E-02 -2.898200209105E-02 -6.113519700744E-01 7.334651970296E-02 -2.570859711251E-02 -9.264409564506E+00 5.928268377695E-02 1.915787027575E-02 -4.728925071231E-01 -1.442384872527E-01 1.334928574070E-01 3.736999672167E+00 6.650216868687E-02 -4.655820180739E-02 8.968180097158E-01 5.166543122074E-02 2.469938575847E-02 -1.401949866443E+00 -7.614590321802E-01 1.327852381207E+00 7.652475101584E+00 2.737652164039E+00 -1.864342957713E+00 1.402476472515E+01 -5.221171065545E-01 -8.455387422291E-01 7.999854636141E+00 -1.125574748301E+01 -5.463587049081E+01 1.849861433941E+02
 3.597567081676E-01 4.689379548298E-01 -3.096444456904E-01 8.961330123214E-01 -7.102107478229E-01 -6.234244305006E-02 3.376095086017E-01 1.881908161801E-01 -5.009031919223E-01 3.050222660856E-01 5.679162038007E-02 -4.431062501647E-02 3.827169181500E-01 6.967322778362E-01 2.412907437072E-01 -2.636217545925E-02 1.203248903817E-01 6.834771114271E-01 -4.824107852939E-01 -2.551967716747E-01 4.308751869747E-01 -2.140091327527E-01 -3.221429444805E-01 7.888965230241E-01 -3.674525591667E-01 -2.658944730166E-01 -3.687758656105E-01 -3.878355723860E-01 -3.349936159581E-01 7.370861866468E-01 -1.102704152369E+03 3.955526391884E+02 9.215073921751E+00 -4.830470016789E+02 -2.671464081028E+01 6.902201539483E+00 2.142952038202E-01 -9.332617995927E-02 2.785299678348E-01 1.671546196250E+00 1.666337610298E+00 -2.322722780122E-01 2.970821797625E+03
 3.301194855955E-01 4.403896406665E-01 -4.739289218578E-01 7.967615374209E-01 -5.798954300838E-01 1.380566646058E-03 2.898178259244E-01 1.412845089577E-01 -5.117113608288E-01 2.232307428423E-01 6.063886002345E-02 7.154962792001E-03 3.000565706451E-01 5.519332903960E-01 3.318676766019E-01 8.901940061361E-03 1.211585908493E-01 6.531590346798E-01 -4.393686520094E-01 -2.071614112880E-01 4.435020097425E-01 -2.045329113603E-01 -3.071017456038E-01 8.191007339718E-01 -2.502710710971E-01 -2.841532558742E-01 -5.634457804247E-01 -3.043409145968E-01 -2.327437959266E-01 1.067736872309E+00 3.935726131581E+02 -6.806449488079E+02 9.131380816040E+00 -2.295378540844E+01 -1.425421777261E+03 4.233653145879E+01 1.641146503925E-01 -5.356192593272E-02 5.661301570971E-01 1.608768580001E+00 1.500466853520E+00 -6.501731568425E-01 1.692552488313E+02 2.793407113366E+03
 -1.398548627347E-01 -2.191453407274E-01 -1.803637784383E+00 -8.892046949510E-01 6.782740020837E-01 6.895042693003E-01 -1.639827553995E-01 -1.200073488163E-01 -1.935961877855E+00 -1.922982263412E-01 4.519700514103E-02 2.007824483538E-01 5.295222750716E-02 -1.242238891427E-01 2.526240349355E+00 -6.382838750459E-02 -5.307714316335E-01 2.023705004106E+00 8.213154151256E-02 -1.009050180647E-02 1.866562115051E+00 4.749260741045E-01 -2.290518851211E-01 2.863197846043E+00 1.881813677758E-02 1.552069277617E-01 -3.857743211474E+00 -7.502574973478E-02 5.558630651511E-03 6.112378677860E+00 8.360409572382E+00 8.223911729707E+00 -7.302195132128E+01 1.463437204831E+00 4.134993333569E+01 -8.519637335783E+01 3.509134538223E-01 3.329593911431E-01 7.191414705150E+00 -1.235532912117E+00 -8.266445823304E-01 -1.401394413469E+01 -6.419144160144E+01 -8.265314621402E+01 2.041066778968E+02
 4.195800422046E-02 4.860672710371E-02 -4.979034097928E-02 6.764487956789E-02 -3.854174517421E-02 -5.811527223760E-02 3.916761499480E-02 1.263426884959E-02 -1.388098498388E-01 3.129583258027E-02 3.940890393653E-03 -6.340931236229E-03 5.195145394263E-02 8.394717196186E-02 1.265598779531E-01 -1.917408291625E+01 3.392375529111E+01 8.290267417579E-02 -5.613991870803E-02 -3.457776021609E-02 1.349026002385E-01 -4.993919839994E-03 -5.114721766438E-02 2.061234455644E-01 -5.664029754548E-02 -5.202453178883E-03 -1.901311057125E-01 -4.645566882084E-02 -4.345496195991E-02 3.229586187583E-01 -1.292188574828E+03 -4.576189698027E+02 2.839433582104E+01 -3.172949003068E-01 1.800488898397E-01 -6.584874180321E-01 -1.149320982078E+03 4.189106817459E+02 5.539758688676E+00 -4.570064764133E+02 -1.503999886642E+01 3.660159559424E+00 -2.011355821696E+01 -3.342033754297E+01 2.220445524613E+00 2.784726106973E+03
 5.295406690345E-02 8.964996549052E-02 -6.433004027866E-02 2.136341479376E-01 -1.019871463889E-01 -1.331790977745E-01 -1.413690374077E-03 7.208836531655E-02 9.395375271342E-02 5.022342982232E-02 -1.505992412446E-02 3.962653247386E-02 1.357031361236E-02 8.681340721824E-02 -1.829905266566E-01 -3.220381160683E+01 5.695103570646E+01 -3.125878105360E-01 -2.809864850857E-02 -7.030032357299E-03 -1.059458225850E-01 -1.408404623728E-01 1.506091408155E-03 -9.140730262262E-02 4.696505701567E-02 -1.234647109284E-01 1.560844029701E-01 -2.368550665982E-02 -1.102208696409E-02 -1.515389896997E-01 -4.542703343200E+02 -7.372045291200E+02 2.028726140628E+01 -2.226575366909E-03 3.824496682407E-01 -2.313985679947E-01 4.143025349646E+02 -7.041931955486E+02 4.723939536620E+00 -6.974448743851E+00 -1.432376492680E+03 2.880375709214E+01 3.124205994948E+01 5.558936596804E+01 -1.726624830077E+00 5.194975813702E+01 2.758941885308E+03
 2.267207370343E-02 -2.049094114738E-02 5.212365688108E+00 -3.177948743660E-01 -2.350327658606E-01 -8.875097186179E+00 2.278600831114E-01 -7.579737610823E-02 -5.442286051189E-01 1.273195825086E-01 7.216529203968E-02 -3.604758576040E-01 3.089059822576E-01 2.636288492172E-01 5.078564603583E-01 4.269176150609E-01 -7.426963502071E-01 8.976451103975E+00 -1.388198840971E-01 -2.611167038983E-01 5.728302135708E-01 4.747472236199E-01 -1.580056426686E-01 5.679197308860E-01 -5.829919782424E-01 4.202145064090E-01 -1.184342662396E-01 -2.184843922602E-01 -3.134392799656E-01 -8.396378924744E-02 2.826494026218E+01 2.089960898073E+01 -8.764101391211E+01 -6.473751953135E-01 -3.461126390187E-01 -7.933660579120E+00 5.201560726385E+00 4.526094629252E+00 -7.949800094715E+01 3.268787517573E+00 2.816342207793E+01 -8.002021929193E+01 7.802410761002E-01 -3.050938357140E-01 6.131903659693E+00 -3.735621926070E+01 -5.349338289344E+01 1.942808387011E+02
 4.839841207800E-02 5.601658782101E-02 -6.356084309396E-02 8.784551487519E-02 -1.079012025968E-01 3.279997550368E-02 7.783077580050E-02 -2.887860758180E-02 -1.515328871861E-01 8.288683865197E-03 2.028216866025E-02 -1.396496195192E-02 4.452832264745E-02 4.937854512287E-02 1.930451262102E-01 3.907192525398E-02 8.648506276454E-02 1.922907885986E-01 -1.037901422348E-01 -2.281861511806E-02 1.500677052002E-01 2.988512164587E-02 -6.282826735931E-02 2.159621948220E-01 -8.229339675581E-02 1.257352798485E-02 -2.479942808360E-01 -4.875102376236E-02 -2.743908929991E-02 3.492831865839E-01 5.205773392165E-01 -2.803485059516E-01 -1.916622851722E-03 -1.578655721222E+03 -5.430105238626E+02 3.019382753484E+01 -6.849144448245E-02 -3.577069282752E-02 1.258268124328E-01 -1.227037510504E+03 4.223421507924E+02 -4.142725688943E+00 4.509637584773E+01 -3.241746626845E+00 1.851576887534E+00 3.705899619025E+01 -6.106307958115E-01 2.984302992889E-01 3.103034731178E+03
 1.837154148896E-02 6.431740100661E-03 1.245040907893E-01 -1.274979034951E-02 -5.481441701357E-02 5.987237685764E-02 6.953549981584E-02 -3.127476787113E-02 -1.174574614422E-01 1.718035192123E-02 2.252241180972E-02 -6.490352813111E-02 5.908248619121E-02 4.748476842123E-02 1.341211701533E-01 2.150592145995E-02 4.243606845273E-02 1.704698597340E-01 -6.430926676951E-02 -4.455583743648E-02 1.253015745093E-01 8.750732807809E-02 -4.621018877148E-02 1.316994235666E-01 -1.232095055511E-01 7.581542915072E-02 -7.630155351929E-02 -4.802954784682E-02 -5.350540121409E-02 4.985497790154E-02 4.038552437653E-02 -5.911367228369E-02 -8.071030194810E-01 -5.621772053582E+02 -8.812955771068E+02 3.022483882899E+01 -8.157757743826E-02 -4.400792741365E-02 -2.107413445299E-02 4.107127669851E+02 -7.135897681487E+02 1.401615330541E+01 -8.407748451689E+01 3.135639301162E+00 1.326232231444E+00 6.698437077735E+01 -9.663765175769E-01 8.973701344784E-01 1.269313916383E+02 2.537772015515E+03
 -1.025198830634E-02 -1.211456102347E-02 -3.481638363024E-02 -3.294409640025E-02 1.004529127896E-01 4.532444614823E+00 1.602493730417E-03 -1.117650336956E-02 -9.010658358044E-02 -7.153795103437E-03 7.758856199136E-03 -6.591099300397E-03 8.692262567156E-03 -1.044001522018E-02 1.222237049677E-01 -1.301056001654E-02 -1.026724926704E-02 1.029159865885E-01 -5.443373243369E-03 -8.786983344839E-03 9.098622901429E-02 4.697821431295E-02 -8.536034420811E-03 1.236679394521E-01 -1.701176552240E-02 1.750896206295E-02 -1.529160505936E-01 -1.004381809983E-02 -3.328336769809E-03 2.232272301744E-01 -3.063409918756E-01 -3.076616809156E-01 -9.648220928262E+00 3.073128290151E+01 2.940532723655E+01 -7.246273730586E+01 5.542690235380E-02 1.044335467093E-01 4.283066440690E+00 -3.565445461129E+00 1.386722387443E+01 -7.476861820290E+01 2.746667036130E+00 5.361531980786E-01 9.136118439882E+00 -1.410577161229E+00 2.924546979263E-01 1.025804546930E+01 -2.989588067890E+01 -7.143943170870E+01 1.524540558047E+02
 6.696796234965E-02 7.608579382587E-02 7.345690184072E-03 -1.197620258159E+03 4.373655521062E+02 -6.994856353004E+00 1.033323101102E-01 1.475233142198E-02 -2.139921693090E-01 7.086969841783E-02 2.621345196106E-02 -5.245854319285E-02 1.195785350290E-01 1.671398256036E-01 1.802275438903E-01 3.965195370304E+01 -4.204569866772E-01 3.599212985268E-01 -1.233531535600E-01 -8.609546145256E-02 1.973721439606E-01 -1.969822766799E+01 3.532556643856E+01 -2.727640862463E-01 -1.598251680954E-01 1.305118842019E-02 -1.754071367211E-01 -1.097961751130E-01 -1.059949942674E-01 2.618372435324E-01 1.119180340887E+00 -2.731819419354E-02 -3.550928276211E-01 3.307544235564E-03 5.878829601791E-01 -1.937930793222E-01 2.257489286492E-02 -3.636442000784E-02 -3.565047824599E-03 -1.203843459559E+03 -4.143979695763E+02 1.226426516351E+01 -2.239353639230E+00 -2.064374462441E+00 1.370971427089E+00 3.667186642380E+01 -9.655522632342E-01 7.349106405727E-01 -1.842008741556E+01 -3.275179547044E+01 8.974150575813E-01 2.762717414900E+03
 1.059867557047E-02 1.941154678913E-02 5.354183790078E-02 4.429189353377E+02 -7.300030728096E+02 1.149202539173E+01 4.117377372792E-03 4.068199904684E-03 6.035030626304E-02 -1.010355208277E-03 7.061954045267E-03 8.828283244621E-02 -1.151416978202E-02 -9.284470185310E-04 -6.718471042231E-02 6.582185304562E+01 -7.019050535608E-01 1.888968688095E-01 -1.226585823441E-02 1.214840210965E-02 -4.909721726869E-02 -3.279948687058E+01 5.881305396528E+01 -8.844773590297E-01 2.105637437540E-02 -3.162618906491E-02 6.745003345146E-02 3.855320336056E-03 1.137793720667E-02 -8.905419373641E-02 1.627650910253E-01 -9.430792094828E-02 2.011351373381E-01 2.913456661653E-01 2.128092041514E-01 2.151576861911E-01 -2.101351102598E-03 -2.156292661691E-02 -1.296468460752E-01 -4.139678935520E+02 -6.960472465336E+02 1.448408831125E+01 -4.840941938313E-01 -4.646559490612E-01 3.802629286399E-02 -6.589180840640E+01 9.209172592466E-01 2.232986649927E-01 3.223833787313E+01 5.842505291920E+01 -1.141789424122E+00 3.097618275378E+01 2.799333320251E+03
 5.124225201267E-02 4.006507651524E-02 5.258700381894E+00 -7.180771073176E+00 1.149131907640E+01 -8.138566210962E+01 5.630870056868E-02 1.316336768668E-02 5.333771864388E-01 4.358396921984E-02 6.001647778694E-02 4.470421011796E+00 1.642565259933E-02 7.089100094324E-02 -7.460073233470E-01 -8.811171479168E-01 2.963600567520E-01 8.585169801703E+00 1.741834320024E-02 -7.646578610778E-03 -5.085810590372E-01 4.744432836789E-01 -7.612316777299E-01 8.228580745899E+00 -8.046720273806E-02 5.836854303288E-02 1.231792040157E+00 2.191080699709E-02 -5.807664131066E-02 -1.972020819771E+00 -8.071143518129E-02 3.618514100130E-01 2.203535539953E+00 1.467053707803E+00 8.121414802310E-01 9.967480156937E+00 -8.238299925765E-02 -2.466640885968E-01 -9.836918557696E+00 1.253555028371E+01 1.465353919266E+01 -8.167562697050E+01 -8.038068110788E-01 -1.181716756740E+00 -6.229251738699E+00 9.845978625542E-01 6.167404041945E-02 8.915442130909E+00 -9.676098435313E-01 -8.234498005658E-01 9.083004355648E+00 -7.083671921379E+00 -5.662746930997E+01 1.896853074876E+02