#BIOSYM hessian 1
@Type: Hessian Update
@Units
 distance: 	A
 energy: 	Kcal/Mol
#header
@natom 68

#label
C1      C2      C3      C4      C5      C6      C7      C8      C9      C10     C11     C12     C13     C14     C15     C16     C17     C18     C19     C20     C21     C22     C23     H24     C25     C26     C27     C28     C29     C30     C31     C32     C33     C34     C35     C36     C37     C38     C39     C40     C41     C42     C43     C44     C45     C46     C47     C48     C49     H50     H51     H52     H53     H54     H55     H56     H57     H58     H59     H60     H61     H62     H63     H64     H65     H66     H67     H68

#element
C  C  C  C  C  C  C  C  C  C  C  C  C  C  C  C  C  C  C  C  C  C  C  H  C  C  C  C  C  C  C  C  C  C  C  C  C  C  C  C  C  C  C  C  C  C  C  C  C  H  H  H  H  H  H  H  H  H  H  H  H  H  H  H  H  H  H  H 

#matrix
204
 2.785783500872E+03
 -3.076317961687E+01 2.817571582177E+03
 1.571435578858E+01 -4.921558722554E+01 1.951568807345E+02
 3.964815182690E+01 6.661090633866E+01 -9.590427135527E-01 2.795744511250E+03
 -1.611370333937E-01 -1.354047702002E+00 2.924864233095E-01 -2.390975706818E+01 2.763338031043E+03
 -6.419612556204E-02 1.940449375585E-01 8.461935966884E+00 1.021517838353E+01 -4.560323067297E+01 1.924294364200E+02
 -2.101204757840E+01 3.346222955759E+01 -1.075327849625E+00 -2.569844333813E-01 2.632316243000E-02 9.498233229683E-02 2.807986206407E+03
 -3.116174039891E+01 6.090395316136E+01 -9.260577530164E-01 1.028188887315E+00 -8.701747209331E-01 6.070279111234E-01 -2.793522241815E+01 2.814177973096E+03
 1.316509284128E+00 1.416928452629E+00 8.904272306906E+00 2.465511428189E-01 9.599136161858E-02 -3.559157753471E+00 1.755523498835E+01 -6.397331918595E+01 2.168505095507E+02
 3.793812420461E+01 -6.891314055080E+01 1.486632134597E+00 -1.958140089642E+01 3.546483287245E+01 -8.378457281244E-01 4.163696488027E+01 7.305094392520E+01 -1.131361754950E+00 2.786031233708E+03
 -7.690807033771E-01 2.227997009302E-01 3.234134876125E-02 -3.285581417775E+01 5.951780228058E+01 -1.192225805382E+00 2.401056576885E-01 7.649024363848E-01 1.187325598561E+00 -2.178667131056E+01 2.834739172069E+03
 5.267594215066E-01 2.289510250629E-01 9.147375990078E+00 5.685438274577E-01 -8.985937263198E-01 8.832302713633E+00 5.742459604543E-02 1.618329551746E-01 1.201325890078E+01 1.062492631103E+01 -5.172242166899E+01 1.969413857862E+02
 -2.178665047843E+00 -1.104390421310E+00 -2.681699558516E-01 -6.313697666222E-01 2.664821335977E-01 -2.216620560514E-01 4.080641945076E+01 -7.049571482479E+01 2.535618013742E+00 -2.262609396413E+01 3.696520095208E+01 -8.937325425814E-01 2.633295155616E+03
 2.772095006549E+00 1.811591231732E+00 3.140667999991E-01 5.600377811373E-01 -7.428018714746E-01 4.477155712210E-01 1.011661780367E+00 -5.318622755150E+00 -1.591211228162E+00 -3.437373260250E+01 6.409949015675E+01 -1.647152343724E+00 -2.243885159637E+02 2.892471564860E+03
 -4.757312324449E-01 -8.138247239331E-01 1.862834088707E-01 -4.092852398963E-01 1.597629865805E-01 8.694197334774E-01 6.090502450432E-01 9.347078001108E-01 5.661930033546E+00 3.175336477263E-01 -1.346360899272E+00 9.157321113308E+00 1.558906436567E+01 -6.118903603108E+01 1.591085203079E+02
 -1.228704445397E+03 4.492108084160E+02 -1.435865783130E+01 -4.658900019925E+02 -9.707068238023E+00 -1.738704284462E+00 6.833254364364E-01 -2.296421695441E+00 -3.967520826091E-01 2.978779366521E-01 2.650422466343E-01 -2.709764750245E-02 1.741183008511E+00 -2.103761235854E+00 3.735674836620E-01 2.823612394049E+03
 4.426453558159E+02 -7.401258295683E+02 1.414749310081E+01 -8.527934270185E+00 -1.432399198972E+03 2.306305400187E+01 -4.651027150837E-02 1.143198107283E+00 7.421678072988E-01 -1.032958098679E-01 4.501874357548E-02 -1.036584327760E-01 -6.307312816754E-01 7.185479914042E-01 -4.307675987071E-01 -2.172018702795E+00 2.780824146742E+03
 -1.404980765699E+01 1.470881373744E+01 -8.380904387751E+01 -1.721867632865E+00 2.317130550018E+01 -8.220211123147E+01 -4.634093632755E-02 -5.689592166141E-01 9.007382417396E+00 -2.121608022911E-02 7.492803488998E-02 -8.858074148595E+00 2.715074120003E-01 -3.369719030902E-01 -3.539690878638E-01 1.494858824225E+01 -4.429042668944E+01 1.948629549229E+02
 -1.197115829555E+03 -4.051276995486E+02 1.256629700612E+00 1.947977683738E-01 -5.599022902864E-01 2.810674012448E-01 -1.253961553087E+03 4.499961476482E+02 -1.863207569800E+01 -4.808735689854E+02 -1.410487820255E+01 -2.350428245621E+00 3.295300260263E+00 -2.934449556004E+00 6.341461262681E-01 -2.079129052166E+01 -3.271571742379E+01 2.609209830375E-01 2.813025048352E+03
 -4.053777597921E+02 -7.027052068300E+02 9.668090722795E+00 2.824526621687E-01 5.064539607726E-01 -9.737827154204E-02 4.547790919807E+02 -7.512656401612E+02 1.681265615932E+01 -1.590643275549E+01 -1.512159111034E+03 2.791279083403E+01 2.319376764075E-01 -2.116713626252E+00 5.577487497343E-02 3.413751036871E+01 5.890033590983E+01 -8.573577110470E-01 -3.565610260867E+01 2.848585432235E+03
 3.199707164347E-01 8.411800705918E+00 -8.281643628618E+01 -1.588458064309E-01 -2.182562390290E-01 -8.001141265734E+00 -1.676081351728E+01 1.829141415713E+01 -9.113158942404E+01 -1.821536554107E+00 2.810436692029E+01 -8.647490305080E+01 -9.109061502994E-02 4.620156828170E-01 -7.652897893955E+00 -5.138471694723E-01 -1.214796847520E+00 8.276412316796E+00 1.865960158647E+01 -5.354407368369E+01 1.995684854796E+02
 -4.641507485506E-01 -5.554834116617E-01 5.886747401436E-02 -1.223969432942E+03 -4.183225930055E+02 3.194151557278E+00 -1.147574602081E-01 -1.396364605341E-01 -1.116522817308E-02 -1.223074854504E+03 4.417366445780E+02 -1.276205229796E+01 -1.885652339546E-03 3.716576707671E-02 4.558237326577E-01 3.739215332881E+01 -2.255211491777E-01 3.081685077991E-01 4.169630134958E+01 -1.258430838555E-01 2.811275855739E-01 2.807668047823E+03
 1.558083097538E-01 6.927947797840E-01 -9.982689688325E-02 -4.202978624923E+02 -7.022369482054E+02 9.751138113333E+00 -6.548106172824E-02 -6.559056758204E-01 -1.482859126363E-01 4.404927829093E+02 -7.391275067725E+02 1.442001575866E+01 5.049484834361E-01 -5.174414334323E-01 -2.709639409674E-02 -6.702320433968E+01 5.129589589705E-01 -2.837650100364E-01 6.978595390589E+01 -1.213823774803E+00 2.452232172000E-01 -7.750368517017E-01 2.806856920001E+03
 -3.752433987467E-01 -8.951611363657E-01 -8.888618244219E+00 3.438468765694E+00 9.875313146371E+00 -8.167828884007E+01 3.547177135308E-01 8.216748881058E-01 4.166622908349E-01 -1.277835791524E+01 1.425458983078E+01 -8.501182958299E+01 -1.585362862158E-01 6.937204096448E-01 6.914770700127E+00 1.344224606622E+00 -1.626176274011E-02 8.374079143082E+00 -9.142622302884E-01 3.850256725957E-01 1.113442302254E+01 1.056238146904E+01 -5.076331553245E+01 1.970713852817E+02
 1.329724946805E+00 9.384483509548E-01 1.884872202754E-01 3.921549051360E-01 8.028895788929E-02 -5.231516010673E-02 -1.192507395298E+03 -4.108681449174E+02 2.562766026741E+00 7.234884595830E-01 5.461447179387E-01 2.808564313120E-01 -5.302416444269E+02 3.892451794027E+00 -3.449103662393E+00 -1.128931086835E+00 2.891272845655E-01 -1.341185898023E-01 -2.186293676134E+01 -3.351124565961E+01 1.851032890991E-01 4.678850031485E-02 -1.834047280193E-01 -3.164780029315E-01 2.774354570822E+03
 -2.809361442192E+00 -1.619157699621E+00 -3.992975686354E-01 -9.274829800026E-01 6.175128978690E-01 -4.293954359860E-01 -4.197809090882E+02 -6.956894036424E+02 1.421072108623E+01 -1.814613150922E+00 -2.569497474018E+00 4.773791807723E-01 2.619295835596E+00 -1.628012574704E+03 3.530301786163E+01 2.603782623144E+00 -1.013493433243E+00 5.416699450909E-01 3.873705172569E+01 5.950693977455E+01 -1.499009536872E+00 1.065573630572E-01 8.547154253525E-01 -6.598245496430E-01 -2.686562153030E+01 2.944682357279E+03
 -3.228056413939E-01 -7.761536908615E-01 4.760668358394E+00 -7.495878768882E-02 -1.898924825687E-01 1.874669577953E+00 2.098115925053E+00 1.251385517663E+01 -9.288781939269E+01 2.334949457350E-01 -7.899966094298E-01 -1.145403024106E+01 -2.815111268636E+00 3.780073974832E+01 -7.775015917250E+01 1.065422159864E-01 -2.446340137739E-01 -2.229861600110E+00 -6.776440409585E-01 -8.384197125757E-01 1.308232808048E+01 -3.914682363889E-04 1.296256573021E-01 2.064552300578E+00 1.983072700190E+01 -6.754428264538E+01 1.892378597868E+02
 2.792254090452E+00 1.862579452007E+00 2.423978732565E-01 6.604432349647E-01 -5.620742646095E-01 3.078657835251E-01 2.398035351268E+00 -4.523514395607E+00 -7.242668688283E-01 -1.198601861911E+03 -4.115253160412E+02 3.738476318923E+00 -1.321778805217E+03 4.988105165606E+02 -1.478394765473E+01 -2.107258930309E+00 7.180065472862E-01 -2.927285913074E-01 3.469226847080E+01 -1.261373302892E+00 4.384987062199E-01 -1.946262388299E+01 -3.280135213094E+01 7.598412191418E-01 4.806765189424E+01 5.392875900804E+00 1.928105009963E-02 2.875678205002E+03
 -1.968878817155E+00 -1.242536655172E+00 -1.356010870202E-01 -4.091025740869E-01 5.118861918957E-01 -2.402518036984E-01 -1.725472469301E+00 2.730620459440E+00 6.898089691372E-01 -4.054176741242E+02 -7.042182413986E+02 1.086786365727E+01 4.990543949954E+02 -8.191032558924E+02 1.657241221471E+01 1.490977469407E+00 -6.123132529238E-01 6.990730002065E-02 -6.642931685512E+01 2.393253110688E+00 -5.980196908399E-01 3.480461130958E+01 5.861057090675E+01 -1.376435044471E+00 8.235761139419E+01 -3.743725245991E+00 1.250789711465E-01 -9.998078985643E+01 2.844478341129E+03
 -5.361866493662E-01 -9.536530828573E-01 4.927576083446E+00 -3.131878001279E-01 8.618953603288E-02 5.689226194835E+00 4.982542740886E-01 9.700114552468E-01 -1.724984362132E+01 3.459709097253E+00 9.975915930304E+00 -8.535592406827E+01 -1.489553983968E+01 1.802724462291E+01 -7.467280603592E+01 2.703232985029E-01 -3.158085158097E-01 -9.837855185534E-01 1.956220742149E+00 5.288763934895E-01 1.298854971498E+01 -5.982943073758E-01 -1.012466820200E+00 1.100625730809E+01 -2.179439137638E+00 -9.132195101760E-01 1.445334985519E+01 1.338263528162E+01 -5.338756763178E+01 1.874654249501E+02
 -8.333330910081E-02 -1.765567644085E-02 -5.304981554027E-02 -2.257810217356E-02 3.373411436376E-02 4.855769858443E-02 -2.514703388643E-02 2.983850381752E-01 -3.318189556238E-01 -3.618122441675E-02 -1.136257393728E-01 3.949030669419E-02 -1.717552296133E-01 3.136993516712E-01 -8.947825617157E-02 1.304549437573E-01 -7.763993236708E-02 -2.283557289151E-01 1.555183276373E-01 4.954524378491E-02 -2.030877433835E-02 -4.111031073778E-02 5.901501863287E-02 -5.354155996951E-02 5.885471814986E-02 -4.079398550274E-01 1.640065955113E-01 2.218816800141E-01 -1.452687641662E-01 -1.703908524511E-02 2.808347368519E+03
 2.152729242955E-01 2.416367821538E-01 3.380262076231E-02 4.998426895865E-02 -4.326917460616E-02 8.584767731797E-02 -1.223059648984E-02 -6.014899849611E-01 -1.552188108304E-01 5.862397889932E-02 1.370915200042E-01 -8.765836222227E-03 3.006107670464E-01 -5.216190517434E-01 1.012909083165E-01 -2.065226738958E-01 9.917270353000E-02 1.503106539622E-02 -1.969214196629E-01 -8.643504551738E-02 2.459575765765E-02 1.303617636446E-02 -5.024492516685E-02 5.289081243386E-02 -7.385108468140E-02 6.689112171889E-01 2.703278776653E-02 -3.983444087064E-01 3.567243120011E-01 7.804508375128E-02 2.175003974468E+00 2.800631351888E+03
 -1.111569320011E-01 -2.796488684551E-01 2.640811536668E-01 -6.176381545421E-02 3.336112389643E-02 3.219296279185E-01 2.434085173505E-01 3.397043025415E-01 -2.251850033295E+00 5.552302115197E-03 -1.131245601765E-01 -5.355477563443E-01 -2.094650648527E-02 1.967975717548E-01 7.922787272869E-01 1.922540277718E-02 -1.907068872931E-02 4.155129313258E+00 8.358936848962E-02 1.098853235952E-01 7.448686330803E-01 3.247414338801E-02 2.231851281936E-02 6.999539229924E-01 -1.666849826379E-01 -3.253679670634E-01 1.028553578878E+00 5.611820495289E-02 -1.062624044426E-01 1.056176862420E+00 9.461613744914E+00 -3.851424050185E+01 1.943159293679E+02
 -2.343083723772E-01 -2.153400157830E-01 7.595252368827E-03 -3.580953530935E-03 2.659791434667E-02 1.649681955562E-02 3.423939492081E-02 7.630873643291E-01 -3.180116038193E-01 -7.268872051209E-02 -2.929282521941E-01 7.097189058416E-02 -3.808966931228E-01 7.680787383126E-01 -1.996798963252E-01 1.830284665428E-01 -5.062631525411E-02 -1.953073097039E-01 2.925092783646E-01 1.997470525703E-01 -8.874635576556E-02 -8.616350872771E-02 1.493742161207E-01 -1.364770922749E-01 1.104697544983E-01 -9.941436598954E-01 1.998187730344E-01 5.077364717677E-01 -3.909369304772E-01 -9.317370085065E-02 4.098878275123E+01 7.189391635685E+01 -1.109899939683E+00 2.778006789244E+03
 -4.749311854239E-01 -3.820639524611E-01 -2.857848062206E-02 -6.547922076993E-02 3.398082375559E-02 -1.309973393905E-02 -1.449009088091E-01 6.661811077340E-01 -1.113445075224E-01 -1.333756806674E-01 -3.419835714212E-01 -1.065917321786E-01 -5.638223616242E-01 9.522536847177E-01 1.085624764628E-01 3.446985539638E-01 -1.361674120429E-01 7.972790070366E-02 4.809469190059E-01 2.446690979776E-01 1.478026304664E-01 -4.899631429506E-02 9.545096217478E-02 1.486692479795E-01 3.097516558720E-01 -1.089733899128E+00 2.606899023381E-02 7.750706385402E-01 -5.837379813614E-01 1.816631420228E-01 -9.231106278739E-01 -1.459388310211E+00 2.190603431588E-01 2.800114919839E+02 2.861663229771E+03
 -2.976887488608E-01 -5.793200139891E-01 2.623252100902E-01 -1.890788300654E-01 5.467260076510E-02 6.916807540781E-01 3.962458427714E-01 7.128172004750E-01 -4.264911775699E+00 -4.249720934940E-02 -2.089750755618E-01 -1.066433050329E+00 -1.169112564302E-01 4.930129967228E-01 1.708590671295E+00 1.269218576379E-01 -2.016691812409E-01 -5.108101339367E-01 2.350559101086E-01 1.902969693590E-01 1.691783272258E+00 1.531532005448E-01 -2.799807100946E-02 1.489172548567E+00 -2.928251159105E-01 -6.421261719490E-01 1.960399118640E+00 2.299625881396E-01 -3.609384670604E-01 2.123500187831E+00 7.630533835344E-02 4.614512400557E-01 1.142792605409E+01 4.866638080772E+00 -4.209810013808E+01 1.511416321600E+02
 -2.019477792828E+01 -3.430347074863E+01 2.430885150327E-01 3.877889790980E+01 -2.677493169054E-01 3.705782790386E-01 -1.867115690489E-01 1.384700334785E-01 -2.207159530859E-01 -1.226931013251E-02 -8.936511450751E-02 5.992018523091E-02 -2.398247616602E-01 2.322752550794E-01 -9.970590217883E-02 -1.247508804155E+03 -4.327837309431E+02 7.446953965359E-01 2.050013044935E-01 -1.073661257636E-02 -1.599746147045E-01 -7.133791973460E-02 4.708167503370E-02 -7.294241330322E-02 2.187096651583E-01 -3.386422663170E-01 9.562940518151E-02 2.980165830383E-01 -7.130388056193E-02 -7.170455258273E-02 -1.939631428684E+01 3.435845438529E+01 -6.394527350165E-01 -3.517111525422E-02 -6.787694783345E-02 -4.206905546018E-02 2.776188527913E+03
 3.408137081870E+01 5.959476126119E+01 -9.265209615215E-01 -6.839943064536E+01 5.838672812042E-01 -4.754514434178E-01 -1.202132420831E+00 2.490789030841E+00 9.667371345063E-01 -5.710691700321E-01 -7.589539237750E-01 1.469356606913E-01 -1.954259657838E+00 2.861563130207E+00 -2.864000504820E-01 -4.358184063615E+02 -7.262688111240E+02 8.197935474858E+00 2.122626977825E+00 3.823979292373E-01 -1.463198850761E-01 -1.098388803719E-01 3.380258074620E-01 -5.006350411043E-02 1.375418704555E+00 -2.932297579821E+00 -2.933559190323E-01 2.626367715960E+00 -2.010215659802E+00 -2.911466861688E-01 -3.268628752197E+01 5.746945406071E+01 -9.509814347281E-01 -4.013211734772E-01 -4.445289856521E-01 -1.274801427192E-01 1.938347665565E+01 2.806371995801E+03
 -9.425600039335E-01 -1.551541138730E+00 1.009061434623E+01 1.303488078472E+00 8.564706913822E-02 9.673764889865E+00 1.596051886858E-01 2.726281495723E-01 -3.160171937151E+00 -8.060706377315E-03 -5.984271764879E-02 -6.786261605498E-01 -6.302132148798E-02 1.642187371010E-01 1.032001275131E+00 9.338186038882E-01 8.099599981806E+00 -8.412450284892E+01 1.063044178478E-01 1.883989362464E-01 5.640372543761E+00 -1.091470337123E-02 4.148759230541E-02 5.409268985781E+00 -1.131750572554E-01 -2.185492055855E-01 1.555542798458E+00 8.942036865550E-02 -1.409714142717E-01 1.387254506707E+00 3.319203351679E-01 -6.409427428913E-01 9.107168755555E+00 3.529344497644E-02 5.985127934949E-02 8.264797425489E-01 1.241006686400E+01 -4.011133058289E+01 1.928204191125E+02
 -9.756914449257E-01 -6.521806726525E-01 -1.210847872749E-01 -1.903326404751E+01 -3.137189776420E+01 2.077525487434E-01 -1.842292541074E-01 2.077780045548E+00 5.174395052352E-01 -2.925093020985E-01 -6.610043369527E-01 5.577216045390E-02 -1.229189111769E+00 2.187166263670E+00 -2.723425473874E-01 6.853384243646E-01 -5.216976935152E-01 2.743319884599E-01 1.035801738034E+00 3.900788772019E-01 -8.355923073423E-02 -6.284448785675E-02 2.685211214022E-01 -1.383646553400E-01 4.542496843336E-01 -2.570474026809E+00 -1.784045457559E-01 1.672609325088E+00 -1.362361297801E+00 -1.782541172309E-01 3.989069911083E+01 -6.885939595078E+01 1.218977688257E+00 -2.313730848412E+01 3.990733489101E+01 -8.667803330043E-01 3.958921639134E+01 6.608550957279E+01 -9.937037251436E-01 2.773327313325E+03
 -5.795142884236E-01 -4.656846166159E-01 -1.736276326778E-01 3.335459900464E+01 5.607558980071E+01 -7.579041517863E-01 -4.403572562286E-01 9.766351971652E-01 5.910802156430E-01 -2.378191002065E-01 -2.509302932356E-01 1.593264019919E-01 -7.587942773416E-01 1.139457958929E+00 -2.773875863002E-01 4.771778475001E-01 2.039003488234E-01 -5.710745680112E-02 7.471026574310E-01 2.458903522522E-01 -2.399431502925E-01 -6.624639899470E-02 4.753005777911E-02 -1.389072070891E-01 5.017827707069E-01 -1.242584952603E+00 -1.969322603018E-01 9.741502527843E-01 -7.598837563268E-01 -3.245795350403E-01 -1.137290802595E-01 1.744181665870E-01 2.382231786540E-02 -4.227532343758E+01 7.371502089336E+01 -1.346948910500E+00 -1.216666272371E-01 -1.149978659633E+00 9.356120725011E-02 -3.807080984698E+01 2.753228626616E+03
 -1.403607176123E-01 -6.032690294547E-01 6.456030010625E-01 -4.947916401879E-01 -1.164978581295E+00 8.788520271471E+00 2.588136553127E-01 6.525049723899E-01 -5.081280965522E+00 1.763367635266E-01 -2.980669034243E-01 -7.115989745141E-01 -2.548457787796E-01 2.306888080939E-01 7.317667339551E-01 -3.181409492383E-02 -3.376171025415E-01 -1.031315418881E+01 1.329414604945E-01 2.438950431608E-01 8.933785287927E-01 -2.584412373666E-01 5.034164868573E-01 5.072415794789E+00 1.112653341432E-01 -7.640387118292E-01 2.192797116107E+00 2.510182289958E-01 1.009163982494E-01 1.665225479162E+00 2.820961929323E-01 -1.198946138776E-01 1.025607693711E+01 7.279769647180E-01 -8.090866800908E-01 1.331571032354E+01 1.631472513942E-01 3.280766461793E-01 9.745077768576E+00 9.535404972202E+00 -4.219561152429E+01 1.877046760471E+02
 7.639258034104E-01 4.597758038141E-01 7.283100425622E-02 2.054514039990E-01 -2.381792152657E-01 6.289517852490E-02 2.687254051928E-01 -1.793148990032E+00 -2.461189807882E-02 3.059550077616E-01 4.027755320832E-01 -1.381317920279E-01 9.851707067725E-01 -1.674724152545E+00 3.403370202368E-01 -5.876491717050E-01 2.244070213429E-01 1.225937597800E-01 -1.006509029684E+00 -2.495075410073E-01 1.909352747637E-01 4.414814048424E-02 -1.867880648798E-01 2.129295780476E-01 -3.744263672193E-01 1.919671951851E+00 -8.695513342312E-02 -1.297145362492E+00 1.046300008195E+00 2.025919964037E-01 -1.236472544944E+03 4.326591274079E+02 -1.042568979415E+01 -5.048314334886E+02 -1.564846078278E+01 -1.075093449472E+00 2.672756634261E-02 8.737313931143E-01 -3.220368023637E-02 2.983841802429E-01 -1.048872901825E-01 -8.129074614598E-02 2.838995040934E+03
 6.393988075075E-01 4.193117398118E-01 5.106794169156E-02 9.547895585725E-02 -5.433549375643E-02 3.023231832408E-04 3.424413122118E-01 -8.884084902291E-01 4.727124755418E-02 2.096653645324E-01 3.008473871308E-01 5.108037402762E-02 7.215005767816E-01 -1.092386193530E+00 -5.836532412042E-02 -4.121523040799E-01 1.737819689478E-01 -5.110450273132E-02 -7.421914219795E-01 -1.859522430942E-01 -8.799759890960E-02 3.860119526255E-02 -9.215202542506E-02 -9.843260602251E-02 -4.623886957886E-01 1.128873676020E+00 -6.927662024291E-02 -9.699097403677E-01 7.499767107976E-01 -1.099704553867E-01 4.349432652883E+02 -7.282983801239E+02 1.118051065077E+01 -2.559545277214E+01 -1.541043765875E+03 2.315416522204E+01 -5.446389126932E-02 4.167160895730E-01 4.646698914409E-02 1.129413258942E-02 4.845995002655E-01 -1.749101189733E-01 3.056929143540E+01 2.895336485447E+03
 2.481922529958E-01 5.286541248982E-01 -6.188151831859E-01 1.663614280448E-01 -5.367614082747E-02 -4.074330729021E-01 -4.497740579613E-01 -5.207361899207E-01 3.436537845456E+00 4.459210764504E-03 1.932245318517E-01 1.134044194189E+00 2.942333162299E-03 -3.632768221135E-01 -1.656941085355E+00 -7.479437532759E-02 1.956238377946E-01 2.249303496535E-01 -1.377370182609E-01 -1.989065526601E-01 -1.378722140722E+00 -1.322998813147E-01 1.918955197521E-02 -1.449641981355E+00 3.691064298568E-01 5.399862855432E-01 -1.551267716166E+00 -8.763651440666E-02 2.593843911643E-01 -2.046044690036E+00 -1.060884445515E+01 1.118570656722E+01 -8.573556638939E+01 -9.478231159855E-01 2.304402044547E+01 -7.845533123613E+01 7.003309434239E-02 1.037261060402E-01 3.619471229494E+00 9.848179851397E-02 5.762649185318E-02 -1.139253053375E+01 8.465642097587E+00 -4.218385946445E+01 1.863034990107E+02
 -3.931370595593E-01 -2.312653943410E-01 -2.319734749876E-02 -2.550749264441E-01 6.415518306208E-02 3.381827238819E-02 -1.573739029267E-01 4.831311113535E-01 1.434920299152E-01 -2.140861381014E-01 -7.108064594900E-02 -4.747889187109E-02 -3.038408915962E-01 5.435123517479E-01 1.404801953891E-01 -1.939504192009E+01 3.490093933526E+01 -4.990257028855E-01 5.004473096693E-01 5.961023349890E-02 1.286614997588E-01 6.761028733384E-02 -3.412509487578E-02 1.344075676049E-01 1.316778834771E-01 -4.055973996219E-01 -1.166434095498E-02 4.366315738185E-01 -4.511579127190E-01 1.201484195977E-01 -1.218686454448E+03 -4.274475669613E+02 2.055941722239E+00 -9.446395267064E-02 -3.556642998429E-01 1.049204013114E-01 -1.174835998145E+03 4.217102178561E+02 -1.143420957625E+01 -4.698320793725E+02 -8.749353905929E+00 -1.377844736109E+00 -1.937087025606E+01 -3.386414684693E+01 3.015469287467E-01 2.748604514966E+03
 6.869209617738E-01 2.476253827792E-01 2.295416393399E-01 1.126563395337E-01 -3.268705321254E-02 -2.393391694399E-01 4.009246268444E-01 -9.042594916768E-01 -3.286536423014E-01 2.804293404668E-01 3.123038256210E-01 9.056472258675E-02 6.726186120446E-01 -1.193748953365E+00 -2.455291640320E-01 -3.340050624739E+01 5.864821080990E+01 -1.146967710940E+00 -8.595651613934E-01 -1.503579107575E-01 -1.452057962773E-01 -8.895558614629E-02 -4.795629186156E-02 -2.328810523983E-01 -3.335181323144E-01 1.144131860738E+00 1.312084015761E-01 -9.541731824769E-01 7.952979706590E-01 -1.632507526067E-01 -4.302426326917E+02 -7.170994854841E+02 8.056069651596E+00 -2.706431902665E-01 1.902675132629E-03 -2.889909653024E-01 4.233974865212E+02 -7.162106322687E+02 1.179377336307E+01 5.976284290136E-01 -1.496879369711E+03 2.257458902270E+01 3.416643392189E+01 5.920775283198E+01 -4.379144791706E-01 7.491694199425E+00 2.812672127771E+03
 -5.545102767458E-02 1.401988628263E-01 4.347229234980E+00 -1.723614549781E-01 6.623647223176E-02 -9.096150884966E+00 8.747708395668E-02 -1.578996317662E-01 1.769511369120E+00 -1.659857349461E-01 6.348805007307E-02 -1.826947522043E-01 5.553949138482E-02 7.054125667679E-02 4.950421739341E-01 4.926804314897E-01 -6.403644076327E-01 1.007938607718E+01 3.528769688394E-02 2.222446451423E-03 2.553151284573E-01 3.531761440769E-01 -2.803566408157E-01 3.470641893196E-01 -2.054028133801E-01 1.951180243334E-01 -8.514096893029E-01 5.142512467531E-02 -2.593063781533E-01 4.579721617026E-02 2.038163745604E+00 7.952715507266E+00 -8.244116843780E+01 -1.300816903993E-01 -7.101578348198E-02 -1.031220677495E+01 -1.172211582786E+01 1.180823981507E+01 -8.097303521967E+01 -1.376579888764E+00 2.216686125722E+01 -8.342149738667E+01 -4.210017363187E-01 -8.656210621574E-01 9.528003836387E+00 1.078888102252E+01 -4.141474742257E+01 1.921705941325E+02
 5.134329284429E-01 3.739297548841E-01 2.885520802035E-02 9.651738967351E-02 -1.065057119695E-01 5.229375826137E-02 -5.077161859644E-02 -1.105012019865E+00 -9.673831331792E-02 1.778729127628E-01 4.731515421461E-01 6.549903432615E-02 6.264877076991E-01 -1.316914033124E+00 -1.362724833157E-02 -3.900299617349E-01 1.458411574356E-01 -1.449851179328E-01 -5.390989843234E-01 -3.237069335030E-01 -7.534497683348E-02 2.233825287079E-02 -1.348316614133E-01 -7.325012354878E-02 -1.376896944994E-01 1.582677562047E+00 5.875981624638E-02 -8.882082230464E-01 7.522189971962E-01 -7.190800049135E-02 1.026045421580E-01 -2.238306878492E-01 3.792425803679E-02 -1.501357600931E+03 -5.300741366476E+02 3.291419647478E+00 1.599930848841E-01 5.445326905727E-01 -5.482527014807E-02 -1.280418005111E+03 4.335135977780E+02 -1.150966663547E+01 4.885323959421E+01 -1.299911888744E+00 2.033067425268E-01 3.861493044901E+01 -1.299246927673E-01 -1.372636846774E-02 3.072598152024E+03
 7.434197499149E-02 9.585323486756E-02 3.120301610434E-02 -7.584967243328E-02 1.984341090202E-02 1.004987690756E-01 1.174452585672E-01 -2.902674907144E-01 -6.181894957938E-02 -1.141252828565E-02 4.542142079833E-02 -1.806303092145E-01 1.751470191474E-01 -1.947206267495E-01 3.404253108783E-01 -5.954239775453E-02 1.939537039458E-02 1.793338801281E-01 -1.028865774815E-01 -1.406862881451E-02 2.473335306634E-01 1.223211188081E-01 -8.552509267077E-02 2.823799030652E-01 -1.871854369552E-01 2.828358317605E-01 -4.724114052128E-02 -1.903832032813E-01 1.165878905495E-01 3.089955672307E-01 -1.937082271395E-01 -1.433063363937E-01 -4.708102237488E-02 -5.404844693825E+02 -8.713784841245E+02 1.110444094867E+01 5.619771344281E-02 2.845330457158E-01 1.335721267830E-01 4.183306013959E+02 -7.201762777352E+02 1.193441462105E+01 -8.551319855790E+01 1.883910406342E+00 -4.220285346158E-01 7.196617070259E+01 -1.885082392345E-01 6.485210666957E-01 9.237030518324E+01 2.538592258851E+03
 1.081694425256E-01 3.086451465214E-01 -1.018028033939E-01 1.540428455507E-02 9.806189948972E-02 3.965965515475E+00 -1.948027840240E-01 -3.788572187453E-01 3.294923733011E+00 -2.872305167367E-02 1.335683975002E-01 5.280553537250E-01 4.196461923791E-02 -2.182988664345E-01 -8.702176674869E-01 -3.884665914889E-02 1.038735053504E-01 7.039082262271E-01 -7.556542067350E-02 -9.297061934587E-02 -1.009306248572E+00 6.201724269396E-03 -3.830822760533E-02 -7.599215766510E-01 1.392065239413E-01 3.092234202449E-01 -1.610202380238E+00 -6.710690678347E-02 1.038245291717E-01 -1.234071240160E+00 -3.165775642215E-02 -1.825386476427E-01 -1.074594303856E+01 3.470311757408E+00 1.086693415294E+01 -7.112452507055E+01 -3.058223968011E-02 1.585059472266E-01 4.057629813749E+00 -1.132357783956E+01 1.221264421791E+01 -7.712285402219E+01 1.518026519946E+00 1.874084808210E-01 1.145384879803E+01 -1.016960748695E+00 9.505053053890E-02 9.945604431498E+00 9.342805455850E+00 -3.802848649896E+01 1.518252668803E+02
 1.081602066103E+00 6.074585122963E-01 -7.298674247659E-02 -1.226171544257E+03 4.469232750040E+02 -1.164074278936E+01 1.922912727022E-01 -2.385453278616E+00 -1.887102162616E-01 2.526566594713E-01 4.799651462794E-01 -3.333801756655E-01 1.214495152983E+00 -2.071173135874E+00 8.416730134168E-01 3.961750551284E+01 -1.435612992506E-02 3.691767772665E-01 -1.158772667789E+00 -2.263280770397E-01 4.888282948142E-01 -1.944802041904E+01 3.565946661215E+01 -2.942214498455E-01 -4.601459055877E-01 2.546484566870E+00 2.676329298902E-02 -1.576315801844E+00 1.251337160801E+00 5.076444276200E-01 -1.258685416288E-02 -2.206687609353E-01 6.270394825764E-02 1.811604204228E-01 2.891396961759E-01 3.391220292001E-01 -6.159754859613E-02 8.212870103677E-01 1.565212013512E-01 -1.139022899933E+03 -3.878566346382E+02 1.961147189824E+00 -5.419035704146E-01 -2.819025458559E-01 -3.417793754513E-01 3.710442712392E+01 -7.490890923893E-01 5.876025325447E-01 -1.810184327456E+01 -3.253802122736E+01 4.321854563973E-01 2.728361553305E+03
 8.778722420695E-01 8.349844364796E-01 1.679054122690E-01 4.563743865560E+02 -7.418919896056E+02 1.369610346837E+01 3.503270111248E-01 -1.516652815293E+00 1.655215366968E-01 2.478637738481E-01 4.865235158116E-01 2.349048955102E-01 9.842269720775E-01 -1.764970920477E+00 -1.510270810838E-01 6.639279818112E+01 -7.289207847741E-01 2.646190742073E-01 -9.005669047325E-01 -4.981580814778E-01 -1.222422909057E-01 -3.275556671645E+01 5.943875461366E+01 -1.194730561487E+00 -5.056195462602E-01 2.129102865733E+00 -1.124364299288E-01 -1.271479594086E+00 1.072396485186E+00 -1.590992140720E-01 1.561045612464E-01 -1.626310579459E-01 1.082188260168E-02 2.123108059196E-01 3.209470723474E-01 -2.813553928190E-02 -9.675864800089E-02 1.143861758059E+00 -2.268703173419E-01 -3.855197736463E+02 -6.707785819894E+02 9.131169208407E+00 -4.011867288286E-01 -4.112410393639E-01 1.421679434518E-01 -6.507564694180E+01 -3.856779296887E-03 -2.507896064956E-01 3.084952442480E+01 5.768782240921E+01 -6.350707167548E-01 -6.832831294668E+00 2.820358355726E+03
 1.731578439493E-01 7.364256981434E-01 4.223249347665E+00 -1.264309136083E+01 1.402364859956E+01 -8.331835788349E+01 -2.951474499237E-01 -6.342888175701E-01 4.927363806423E+00 8.596849582251E-03 3.485387852888E-01 5.656001230005E+00 1.089276403879E-01 -4.200442686193E-01 -1.520191985087E+00 -8.753425194206E-01 3.723751940832E-01 9.813632260370E+00 -1.924743826883E-01 -2.403994175322E-01 -1.550784772644E+00 4.291950538950E-01 -9.398798274704E-01 8.276291014995E+00 2.150917645041E-01 5.634164921200E-01 -2.428166930706E+00 -1.787687757101E-01 2.703970398305E-01 -2.095313268956E+00 2.795724982374E-02 6.068511626870E-02 3.636770240421E+00 -1.042583347802E-01 5.256255395284E-02 4.241398281265E+00 -5.702977348945E-02 -1.487036452049E-01 -9.821066459669E+00 3.127146283776E+00 9.220470304393E+00 -8.262820283318E+01 -2.734845399793E-02 -2.189829740436E-02 1.224194694143E+00 8.940444338025E-01 2.795459687283E-01 8.265073256672E+00 -5.374703382682E-01 -9.809496512398E-01 1.062129229526E+01 9.712891340684E+00 -5.221285171606E+01 1.887839273213E+02