#BIOSYM hessian 1
@Type: Hessian Update
@Units
 distance: 	A
 energy: 	Kcal/Mol
#header
@natom 67

#label
C1      C2      C3      C4      C5      C6      C7      C8      C9      C10     C11     C12     C13     C14     C15     C16     C17     C18     C19     C20     C21     C22     C23     H24     C25     C26     C27     C28     C29     C30     C31     C32     C33     C34     C35     C36     C37     C38     C39     C40     C41     C42     C43     C44     C45     C46     C47     C48     C49     H50     H51     H52     H53     H54     H55     H56     H57     H58     H59     H60     H61     H62     H63     H64     H65     H66     H67

#element
C  C  C  C  C  C  C  C  C  C  C  C  C  C  C  C  C  C  C  C  C  C  C  H  C  C  C  C  C  C  C  C  C  C  C  C  C  C  C  C  C  C  C  C  C  C  C  C  C  H  H  H  H  H  H  H  H  H  H  H  H  H  H  H  H  H  H 

#matrix
201
 2.780104163399E+03
 -2.344456489477E+01 2.821720702612E+03
 1.831228910267E+01 9.200996144904E+00 1.937485122015E+02
 3.926776866142E+01 6.519649952449E+01 -1.399571186951E+00 2.764477054352E+03
 -4.318468835674E-03 -9.454520756538E-01 -8.510617804996E-02 -2.166874041072E+01 2.761165955362E+03
 -5.630425835765E-01 4.638998962309E-01 1.024133693075E+01 4.354991988952E+01 -7.240523060927E+00 2.105427558444E+02
 -1.984337797720E+01 3.392269463775E+01 1.347447084417E-01 -6.271576516893E+00 1.189753644069E-01 -1.265587146702E-01 2.808197005585E+03
 -3.331049434201E+01 5.905391607693E+01 7.771494142473E-01 3.994326649875E+00 -3.569324242110E-01 4.459573248682E-01 -3.841657375440E+01 2.822463436658E+03
 -9.888895870854E-02 6.570074600332E-01 9.618937675674E+00 -9.934058322385E-01 -1.637087210834E-01 -1.854149367076E+00 4.040461677374E+00 2.982338114380E+01 1.965178321437E+02
 3.624137090466E+01 -6.938901641515E+01 -4.079371190072E-01 -2.631268836343E+01 3.573035882311E+01 -6.036949017626E-01 4.245757362824E+01 7.439167050537E+01 1.693917047825E+00 2.780749956133E+03
 2.672856228798E+00 5.088274508825E-01 -3.216215689702E-01 -3.393135572888E+01 5.850860548842E+01 4.866384687023E-01 -1.069086718511E+00 -3.706938676692E+00 -9.813920525547E-01 -1.181135798961E+01 2.809597837885E+03
 -4.559674103035E-01 -4.308161714601E-01 1.010286475117E+01 2.479813349847E+00 1.127219177341E+00 1.330211851443E+00 -1.594420512976E+00 -1.127948724779E+00 1.132024811287E+01 4.603101105105E+01 3.032757987324E+01 2.102213561651E+02
 8.550366981325E-01 1.670989127786E+00 3.696656176450E-01 1.403026829133E+01 2.652428441948E-02 2.401035235583E-01 4.487460099853E+01 -7.485150715448E+01 -1.326729234577E+00 -1.661777053080E+01 3.809922936102E+01 5.771816315148E-01 2.623143175993E+03
 8.173028216167E-01 -2.381481434241E+00 -1.080109471566E+00 -1.140915563435E+01 5.186365734527E-02 -1.572889833621E+00 -6.487060250720E+00 -4.786508899902E-01 -6.023537854319E-01 -3.363620537620E+01 5.868290744161E+01 -1.075896442762E+00 -2.159115892673E+02 2.893869614693E+03
 -2.313523130496E-01 3.462780371632E-01 -3.569704940750E+00 9.353846690161E+00 -2.787857467439E+00 -7.350410852868E+00 2.602220034449E+00 -1.325751534563E+00 8.515923527198E+00 -5.631071127274E+00 5.615604171813E+00 1.001707822236E+01 1.466636551238E+00 6.747896194555E+01 1.871640002644E+02
 -1.229151424333E+03 4.474278155526E+02 -6.782228692772E+00 -4.609327057157E+02 -1.080857551042E+01 -4.300356350708E+00 5.569965041466E-02 -4.544238152512E-01 -1.256000015872E-02 4.277091602528E-01 -1.125719901203E+00 -1.720610117295E-01 -4.066656525916E-01 -4.411353542976E-01 -3.773034822360E-01 2.819858020967E+03
 4.422988716182E+02 -7.426644620682E+02 2.375138748200E+00 -8.258688700834E+00 -1.432496371660E+03 3.293602751446E+00 2.854712615814E-01 -6.526815316334E-02 -1.319933989700E-02 7.888903097168E-01 6.360828477658E-01 -5.556740672832E-01 -8.787475808375E-01 3.949331095965E-01 8.900058859992E-02 1.385005506774E+00 2.782305681921E+03
 -7.177960325851E+00 2.078350813986E+00 -8.296597334901E+01 -6.978245696174E+00 1.828250231424E+00 -8.323471728126E+01 3.391359806572E-02 -1.120949935713E-01 5.708660359991E+00 1.023906393418E+00 -1.426810254258E+00 -5.039396881948E+00 2.668694658313E-01 -1.513135650635E+00 -4.327677598242E+00 2.024135973342E+01 -1.857859615088E+00 1.939588316920E+02
 -1.192339731692E+03 -4.109156354214E+02 -9.039071158123E+00 4.847200870368E+00 -1.068036454931E+00 8.169367375519E-01 -1.255144981795E+03 4.508675922402E+02 1.155891332789E+00 -4.770719145776E+02 -1.795792380020E+01 -3.206356995015E+00 -4.014991168016E+00 2.286367756062E+00 -1.232245304976E+00 -1.965607086713E+01 -3.322316334896E+01 -7.734007551540E-01 2.810130731583E+03
 -4.118537759432E+02 -7.025131957766E+02 -7.734523004659E+00 -8.489272162646E+00 7.686024965673E-01 1.511715905810E-01 4.529157198987E+02 -7.499219980341E+02 -6.154227651838E+00 -2.013947821987E+01 -1.509689354429E+03 -1.598940425020E+01 3.994247245901E+00 -3.446500363193E-01 1.185230254668E+00 3.547178641582E+01 5.842789661495E+01 5.663647300376E-01 -2.704095931313E+01 2.846366175652E+03
 -9.515663938490E+00 -6.711249322505E+00 -8.247100409213E+01 2.137524170133E+00 4.078730536292E-01 -6.774710788444E+00 2.094688950174E+00 -6.218715543426E+00 -8.629630352643E+01 -6.020175006883E+00 -1.762378393942E+01 -8.828649267166E+01 -2.694582077986E-01 8.972918954838E-01 -4.907434151679E+00 -5.819185395013E-01 -4.729746977029E-01 6.899590356679E+00 1.141110831822E+01 3.098144024832E+01 1.977704046536E+02
 1.112381404473E+00 1.972394512687E+00 2.970999405534E-01 -1.196110817565E+03 -4.180236277228E+02 -1.921530754443E+01 4.817587600071E+00 -3.699485761699E+00 3.272516099675E-02 -1.213352300969E+03 4.362221924256E+02 -2.044462592257E+01 -1.259429213771E+01 9.329518129428E+00 -2.646481117449E+00 3.623909951394E+01 -1.642423067802E+00 4.023229512117E-01 3.420042079753E+01 6.098918477180E+00 1.766587023424E-01 2.767945220223E+03
 1.296962575992E+00 3.751232394705E+00 1.380496333584E+00 -3.855484222867E+02 -7.112052520525E+02 -3.113788039204E+00 8.249751492671E+00 -4.144751600102E+00 5.471443054028E-01 4.530491943492E+02 -7.378187943691E+02 4.883529984853E+00 -1.997819767486E+01 1.706845279232E+01 -7.753704627013E+00 -6.808121430194E+01 -1.491894328793E+00 -5.868404109996E-01 6.114836276129E+01 7.042080604622E+00 -1.334619529069E-01 -3.471727845938E+01 2.765983066551E+03
 8.106757799952E-01 -5.592955975303E-01 -9.156461892153E+00 -2.007919178761E+01 -5.384301292893E+00 -8.510902783883E+01 -5.373071998122E-01 3.699177675507E-01 5.072505033850E+00 -1.947630265816E+01 5.117765591484E+00 -8.370831613383E+01 4.474748735539E-01 4.543693100903E-01 4.149392509049E+00 3.107400178221E-02 -4.015523160232E-02 9.333675985330E+00 1.884893602836E+00 5.027408739511E-02 8.740889201185E+00 4.666548619582E+01 -9.211072348456E+00 1.948605712052E+02
 -8.565357078831E-01 -5.819443271506E-02 -1.416609901345E-01 -2.319053736389E+00 -3.468819256233E-01 -1.778527360610E-01 -1.199573297380E+03 -4.030161817491E+02 -5.133242058006E+00 -4.648071433473E+00 3.203710876310E+00 1.425540498596E+00 -5.110640585816E+02 1.173715215001E+01 -9.265638893811E-01 3.993064217121E-01 2.307779055054E-01 2.966617905040E-01 -1.803531498675E+01 -3.561309392436E+01 -1.209637952392E+00 3.001329210063E+00 4.150178523245E+00 -8.683430223604E-02 2.772013695007E+03
 -1.330599353675E+00 1.347439512216E+00 8.765837701013E-01 1.277830838653E+01 1.050716101974E+00 1.391216277439E+00 -4.076631834051E+02 -7.044149577086E+02 -8.656897558346E+00 -2.518868661175E+00 8.219986025496E+00 -3.241329237586E-01 4.944311440055E+00 -1.622233653058E+03 -3.913370087379E+01 2.737439659529E-02 -6.033670750712E-01 7.824268996747E-01 3.324281411422E+01 6.022580044538E+01 -1.493398495729E-01 -7.229376793463E+00 -1.448967451201E+01 -1.800702883374E-01 -3.679182326720E+01 2.947259483291E+03
 8.758997180295E-01 -1.700441045449E-01 5.796165605827E+00 -4.402405561315E+00 1.159175631689E+00 6.062869275241E+00 -6.969351639668E+00 -8.449539807989E+00 -8.372149493305E+01 2.578886094289E+00 -3.532084041883E+00 -1.240019392219E+01 6.490902167188E-01 -3.363675428258E+01 -8.789381641204E+01 1.087980186995E-01 9.435729414507E-02 3.404174744747E-01 -3.683367468147E-01 3.458418012868E-01 9.494441618548E+00 1.899936013253E+00 2.716198194653E+00 3.621198358965E-01 -1.997244938872E+00 5.498500102197E+01 1.891373377822E+02
 -5.922834716812E-01 -8.378218061081E-01 3.824369414524E-01 -6.653784870207E+00 -4.568428129431E-01 4.703155639846E+00 -3.142904097223E+00 5.322276131506E-01 -3.820309271806E-01 -1.209044254417E+03 -4.113063139202E+02 -1.962674697110E+01 -1.326302254359E+03 4.818962637761E+02 6.698601502877E+00 -5.048416347742E-01 8.532081845637E-01 5.415375375559E-01 4.254110345248E+01 -1.472360185706E-01 1.439735359998E+00 -8.951491970037E+00 -2.000322273346E+01 -3.299206087529E+00 4.993532515338E+01 5.098672230812E+00 -1.958492382008E+00 2.827995475950E+03
 -4.542332835864E+00 3.106567436953E+00 1.130880963754E+00 1.394183651146E+01 4.772876472859E+00 -2.883538442487E+00 8.084447150603E+00 6.943026042257E+00 1.613274383415E+00 -4.209413570708E+02 -6.694485618829E+02 -1.827120027074E+01 4.741610169509E+02 -7.974209998216E+02 -2.646651301255E+01 1.654617673903E+00 -2.108599249970E+00 2.243844446355E+00 -6.631448891188E+01 -5.861682880155E+00 -3.555035469927E+00 3.650568554680E+01 4.049370516939E+01 2.506088195461E+00 7.883512817191E+01 -3.310157192293E+01 2.641450403433E+00 -5.339016679916E+01 2.754324466410E+03
 -2.832131874718E-01 1.420661383640E+00 5.295455274908E+00 3.104748896527E+00 1.612755610294E+00 1.562048513760E+01 2.264076836603E+00 3.106543776574E+00 -1.160353694224E+01 -2.353031216976E+01 -1.354275611137E+01 -1.032603505693E+02 -5.939504900009E-01 -1.110913468479E+01 -9.199258362090E+01 1.621798610365E-01 4.992206748843E-01 -2.283993860921E+00 -1.113325692093E+00 -2.945419724674E+00 1.237100966411E+01 -3.609004759713E-01 -8.020520930807E+00 6.890709657316E+00 2.396200549424E+00 -3.988967901298E+00 1.370436001501E+01 9.872033915121E+00 7.675140585072E+01 3.162207250343E+02
 8.398954216186E-02 -2.173074227098E-01 1.117255911030E-02 -1.674258696017E+00 -1.851677923386E-01 -7.240166910989E-02 -5.011599188020E-01 -6.328247820759E-02 -5.042990915753E-02 -4.542396204207E-02 -5.915875704130E-01 2.595295203288E-02 1.177652563806E+00 -1.661708883683E+00 2.477322074202E-01 1.903486342061E-02 1.894619260833E-01 -5.975184726173E-02 2.584225473358E-01 -4.469559044716E-02 1.457071303570E-01 1.159066397435E+00 2.014097721367E+00 -5.035320155524E-02 -1.104936280707E-01 1.442900160760E+00 -8.038613946807E-02 -4.832810297065E-01 3.428430874063E+00 9.783944447250E-01 2.810807840225E+03
 3.397034513180E-01 5.149966278567E-02 -1.925264924937E-01 -2.542484517601E-01 -4.451471937687E-01 -3.300304747076E-01 -8.169699723190E-03 -1.713255879269E-01 -7.496862961996E-02 8.112046440962E-01 -1.357989120118E+00 1.002120247935E-01 1.343176603536E-01 -2.119794233321E-01 5.839704306669E-01 -7.640570302825E-02 8.654398309808E-02 -6.393672709200E-02 -4.463043413760E-01 1.515200479022E-01 1.872529301008E-01 -1.037911974496E-01 -3.970083483866E-02 -9.531038100881E-03 1.764595906203E-01 6.317808804373E-01 -3.295885440175E-01 2.248452771588E-01 2.778279925886E+00 -2.698325683191E-01 1.686876139080E+00 2.799567856908E+03
 3.917607972822E-02 -4.161345646465E-02 1.807285056280E-01 -9.447216586325E-01 1.256541697772E-01 9.109696853440E-01 -1.369216523608E-01 7.798413729457E-02 1.891232291115E-02 -2.414224604812E-02 -1.635630298918E-01 -2.644343620335E-01 3.153946097446E-01 -4.917242909513E-01 -1.250262092269E+00 9.805887590914E-03 1.080287724533E-01 4.569836604616E+00 1.073897665812E-01 -1.031849260459E-01 -1.059874987693E-01 5.361665496436E-01 7.306996921833E-01 1.446824693660E-02 7.527834981701E-02 4.007373873401E-01 6.827483255057E-01 -1.762107640205E-02 4.546656640356E-01 4.125770380828E-01 1.683899559587E+01 -1.753881584009E+01 1.939718696540E+02
 -2.918070648679E-02 -3.879317540582E-01 -2.130600900961E-01 -4.113189680590E+00 7.413150675649E-02 5.027269067820E-02 -9.717825897076E-01 3.425338645771E-01 -2.117411224009E-01 -9.905547595583E-01 -2.760223120158E-01 1.942812224874E-02 2.417615259566E+00 -2.663277088708E+00 1.513833719714E+00 1.017828065308E-01 2.529657228040E-01 -2.595369857009E-01 8.515685361622E-01 -8.684399160381E-01 4.158825149506E-01 3.326714230337E+00 4.798155587878E+00 -6.828808209573E-02 -2.445214484768E-01 2.176518273787E+00 -6.530174972686E-01 -1.226712344770E+00 3.707549639001E+00 1.255964465340E+00 4.103750038893E+01 7.143018432015E+01 -4.700008602683E-01 2.780227803519E+03
 1.968359187581E-01 -4.005410595515E-01 -3.739998291803E-01 -4.872848016287E+00 -1.600339078175E-01 -1.228636071466E+00 -1.112798294417E+00 4.223299018200E-01 -1.769046067678E-01 -6.945898885019E-01 -1.087029257411E+00 3.672453725626E-01 2.513198337862E+00 -2.268065568876E+00 1.737251663972E+00 1.479910397889E-01 2.807288986167E-01 -2.650126042597E-01 5.065561489923E-01 -1.056255097531E+00 3.940173354844E-01 3.985934460031E+00 5.263200054817E+00 4.928157207468E-02 -2.929440050469E-01 2.657232397384E+00 -8.460206002605E-01 -2.018880136486E+00 5.293949148755E+00 8.767045853533E-01 -1.332611185803E+00 -2.037122695331E+00 -9.425536243649E-02 2.785745314399E+02 2.860453796347E+03
 -1.484649652972E-01 7.533264256986E-02 4.832868050989E-01 -4.793923318930E-01 1.329245746403E-01 2.329776760193E+00 8.424599542452E-02 3.456310416403E-02 8.691907927795E-02 -3.730104920863E-01 5.120032970149E-01 6.001729719176E-01 -1.728239457598E-01 -3.837149218575E-01 -2.705279388332E+00 1.093409324808E-02 5.974845033747E-02 2.707433765098E-01 2.518790205543E-01 2.537421045930E-01 -3.641452236365E-01 1.722423498454E-01 7.617087429024E-01 -2.739949115201E-01 -1.384669341470E-02 -4.498711814379E-02 8.683386795187E-01 1.713794904667E+00 -1.249111540650E+00 1.116569248234E+00 2.318701403942E-01 4.640439522362E-01 1.099339815752E+01 1.311916960612E+01 -1.864273205028E+01 1.500698894540E+02
 -1.975356386070E+01 -3.390494960647E+01 -1.036782520874E-01 4.077071772120E+01 -2.907294396068E-01 4.884361094447E-01 5.896973482275E-01 -3.631711346692E-01 -2.287298038002E-04 1.626077211133E+00 -1.254344583762E+00 2.897687129701E-01 -1.320458755791E+00 1.270264247998E+00 8.890193671176E-02 -1.247020473658E+03 -4.339002588951E+02 -8.948826339662E+00 -9.196669948005E-01 5.620457619151E-01 3.463179693124E-01 -1.719956892379E+00 -2.667520315542E+00 -2.462524953434E-02 3.649740484157E-01 -4.898476385898E-01 -1.998191297967E-01 1.969749670808E+00 2.184660592154E-01 -1.097497563600E+00 -1.917490560564E+01 3.411109267771E+01 -3.224865663333E-01 2.143437434751E-01 1.317384862091E-01 9.532223010174E-02 2.776832631097E+03
 3.634681493265E+01 6.063227396419E+01 7.173762375294E-02 -6.841316866635E+01 -1.310429394426E-01 -7.005837711427E-01 -1.408223433270E-01 -1.454770453722E-01 -1.270420924410E-02 4.298961477393E-01 -1.294088974593E+00 2.470367726907E-01 4.561460629068E-01 -3.855351508949E-01 2.425362768349E-01 -4.388012246577E+02 -7.230593887135E+02 -2.590075198859E+00 -3.291218142601E-01 1.418039466038E-01 8.866717355317E-02 1.223969547041E-01 6.506782259738E-01 1.642951388304E-01 1.160923711608E-01 7.325464417785E-01 -2.711272169261E-01 -2.650823801402E-01 3.627191729870E+00 -5.107387927528E-02 -3.249707686877E+01 5.731776456366E+01 -5.727871311569E-01 -1.939149170952E-01 -1.689507562103E-01 -8.493213614441E-02 1.984745704650E+01 2.805218263974E+03
 1.646501711923E-02 -1.372297427050E-01 9.953103410852E+00 9.378202715976E-02 2.115459721847E-01 8.315102768489E+00 -3.526260465063E-02 6.694757414992E-02 2.270048544623E-01 -2.250390312264E-02 -1.148057795490E-01 5.489046823695E-01 2.145839464156E-01 -3.120043927229E-01 -8.815370123205E-01 -9.351293872932E+00 -3.009946511854E+00 -8.266160745547E+01 -5.651840524751E-02 -5.038491868290E-02 4.147987307185E+00 1.860795633960E-01 3.118708654444E-01 4.703015894822E+00 4.578772329857E-02 1.270901083397E-01 2.107955852679E-01 -2.808703196820E-01 4.699446686687E-01 -5.447144722050E-01 6.693031584941E-02 -2.428468311849E-01 8.815597025954E+00 4.565810014363E-02 9.660498321350E-03 -2.227515447195E-04 2.149921949530E+01 -7.867176654836E+00 1.915223762093E+02
 2.824240785725E-02 -1.356746157938E+00 -6.845937355536E-01 -3.401214442165E+01 -3.168619950946E+01 -1.254844945966E+00 -3.877835410811E+00 1.321372350196E+00 -4.954225301539E-01 -3.455350594740E+00 -1.397585282962E+00 5.832092659326E-01 9.020085099087E+00 -9.660189147543E+00 4.252573163708E+00 2.328826791824E-01 1.998055279121E-01 -7.105363132754E-01 2.882653341734E+00 -3.103387731989E+00 9.788868271802E-01 1.295681490665E+01 1.866147454586E+01 -2.745160650073E-01 -1.228093011127E+00 8.703029685670E+00 -1.855557630890E+00 -5.357751717718E+00 1.507038823415E+01 4.977026140839E+00 3.879577249291E+01 -6.931574925956E+01 4.810164199263E-01 -2.522042526302E+01 3.785061596727E+01 -7.809586223147E-01 4.011082962557E+01 6.646852085862E+01 -4.886786950117E-01 2.762203374945E+03
 1.908083358139E-01 -6.928931845427E-01 -3.660586084678E-01 2.774364269069E+01 5.600502662115E+01 -7.728483128569E-01 -1.625409990153E+00 1.223094603956E-01 -2.869014364147E-01 -1.496024436849E-01 -2.250089806349E+00 6.185166186132E-01 4.045978230215E+00 -4.798765546273E+00 2.101062867232E+00 -1.362783247304E-01 8.409679895663E-01 -4.226747530044E-02 6.638182216337E-01 -7.580308385695E-01 7.075197940286E-01 4.346133301741E+00 7.033750131382E+00 1.468751659901E-01 -2.851377660898E-01 4.466204560995E+00 -1.093632207705E+00 -1.333620860943E+00 1.091771593893E+01 2.202367736311E+00 -6.185502803152E-01 -3.609431992780E-02 -5.246662588849E-02 -4.281553239569E+01 7.273878443860E+01 -8.470793633678E-01 3.439933579401E-01 -9.025597892375E-01 -2.168325939535E-01 -4.254056599052E+01 2.756954655159E+03
 -4.453111937117E-02 4.007905442634E-02 -4.063383690558E-01 8.827035557332E-01 -1.835614650587E+00 5.258458130635E+00 3.331507645419E-01 -1.296910844350E-01 1.691655947845E-01 -8.412170707792E-01 8.300878148173E-01 7.088775174023E-01 6.137430615752E-02 2.042221760804E-01 2.717527896568E+00 -3.118501829582E-01 -4.725094378068E-01 -8.632393528235E+00 1.957545481610E-01 -5.576878250372E-02 -1.592170974933E-02 -4.336275571542E-01 -6.098931525946E-01 4.441608137253E+00 -1.144770580373E-01 -9.540692236219E-01 -1.432091588589E+00 5.026172531894E-01 -1.402224491798E+00 -1.303267231798E+00 1.329356617963E-02 -3.326012148731E-01 9.324347214017E+00 4.232011885454E-01 -2.899482880844E-02 1.186120130848E+01 1.524667549860E-01 9.813600283689E-01 8.904463419682E+00 2.041452500219E+01 -2.013401596163E+01 1.859061671164E+02
 5.059719435991E-02 3.515911681890E-01 8.921958560635E-02 2.713219326487E+00 -1.416088615953E-02 -5.716520247565E-02 8.089473954695E-01 -1.084614649367E-01 1.160265249838E-01 6.324538763682E-01 3.170573198244E-01 4.370249662370E-02 -2.037500793208E+00 2.517601341707E+00 -7.965195882412E-01 -4.444100927043E-03 -1.960168958888E-01 8.315825719309E-02 -6.674538266382E-01 4.039361467164E-01 -2.538256112351E-01 -2.256403597106E+00 -3.674547483663E+00 3.972727115152E-02 2.485234134986E-01 -1.946259227371E+00 2.539333158415E-01 8.419799587035E-01 -3.829616003228E+00 -1.396283120321E+00 -1.233732083678E+03 4.346284447882E+02 -1.010569368334E+01 -5.050393374148E+02 -1.767849867900E+01 -2.250991624748E+00 -2.705155375622E-01 1.684839711799E-01 -1.209631441024E-01 1.490551349416E+00 4.242156118379E-01 3.516852588913E-02 2.841623477044E+03
 -2.637481556822E-01 2.623777029624E-01 3.069740591496E-01 3.462728259771E+00 4.433599335161E-01 8.929109343063E-01 7.613396064768E-01 -1.792546164499E-01 1.409810592820E-01 1.886043019604E-01 1.278356912072E+00 -2.478405921381E-01 -1.800069812573E+00 1.757623415450E+00 -1.266680603399E+00 -8.054565465705E-02 -2.619049944890E-01 2.497547961712E-01 -1.857093967129E-01 5.698567526451E-01 -3.161163616490E-01 -2.641368477127E+00 -3.607887021612E+00 8.339674762856E-03 1.318203152679E-01 -2.113203642507E+00 6.694438067737E-01 1.165589168670E+00 -5.057461766080E+00 -8.503335813736E-01 4.368184226950E+02 -7.307252526837E+02 7.444188679505E+00 -2.750481163015E+01 -1.540802037824E+03 1.120744765933E+01 -1.082607333530E-01 5.031012422277E-02 1.005817833194E-01 1.371929238848E+00 1.129301229098E+00 -1.545984504664E-01 2.880263377801E+01 2.892343672027E+03
 1.912119157175E-01 -3.639689885461E-02 -2.465918842928E-01 3.612500309473E-01 -4.141040218001E-02 -8.376082024523E-01 -7.292379464723E-02 -8.781693386126E-02 -1.186512508655E-01 6.729290892780E-01 -7.240022892522E-01 -7.540517097235E-01 1.921984577358E-02 1.501487499565E-01 1.337570988197E+00 -3.348213336407E-02 -3.205433762200E-02 -2.826297675859E-01 -3.215665943572E-01 -2.216112827942E-02 2.913506574822E-01 -3.240188270053E-01 -7.077049518114E-01 1.827422169900E-01 8.676002400991E-02 2.677121126940E-01 -2.627070485210E-01 -1.254493933406E+00 1.528541304600E+00 -4.566545220438E-01 -1.012974410942E+01 7.133019743408E+00 -8.513065982511E+01 -2.111230187555E+00 1.141768819689E+01 -7.719592981739E+01 -1.095270037807E-01 5.118527994675E-02 4.475766059533E+00 1.912026768713E-01 -6.530777809148E-02 -1.026019378933E+01 1.481419423092E+01 -2.078520864107E+01 1.844303826820E+02
 -3.404145216499E-01 -1.580724137575E-01 -1.121869459630E-01 -1.736970720911E+00 -2.925355826798E-01 3.357398796050E-01 -1.963706053737E-01 4.121890073174E-01 8.396905875003E-02 -1.513357244327E+00 1.296047475208E+00 1.257703055468E-01 3.614868747158E-01 2.570600954716E-01 -1.311501778044E-01 -1.923267635166E+01 3.513651840985E+01 -3.850618446124E-01 7.538970194575E-01 -5.116004723068E-01 -2.236337903550E-01 1.346190881920E+00 1.644805186120E+00 -1.482481925877E-01 -1.521477382042E-01 -5.504398674563E-01 -4.647461241064E-03 1.862152970293E-01 -2.997834965936E+00 3.548664102297E-02 -1.223668824892E+03 -4.240475331300E+02 -5.160903984682E+00 -2.940604937750E-01 -4.368204196087E-01 1.006192116143E-01 -1.173652528065E+03 4.232477432973E+02 -1.005729005145E+01 -4.683280917564E+02 -1.143113338699E+01 -2.153057575138E+00 -1.926825372578E+01 -3.374455446421E+01 3.480783391517E-02 2.750336641752E+03
 -4.298755495276E-01 4.115047059859E-01 4.531258348308E-01 4.451454316899E+00 9.278331350260E-01 1.008289916644E+00 1.416367781273E+00 -1.293630169126E-01 1.493133090439E-01 -1.758873427430E-01 2.618442993077E+00 -6.413528390697E-01 -3.397156698392E+00 3.728796536986E+00 -1.719507184734E+00 -3.264265398090E+01 5.791208043058E+01 -5.359343913352E-01 -2.387047126930E-01 6.606670607433E-01 -5.018551436464E-01 -3.956375692992E+00 -6.290496908048E+00 -1.345926657993E-01 2.072018964139E-01 -4.009147500184E+00 1.005539055468E+00 1.347204754607E+00 -1.054103503082E+01 -1.763994744891E+00 -4.265964806042E+02 -7.136275966031E+02 1.537191386279E+00 7.670676299679E-01 1.136759760447E+00 7.969046100299E-02 4.242597386333E+02 -7.163385341633E+02 6.596033009088E+00 7.995546198762E-01 -1.495424806388E+03 1.069555009087E+01 3.388026777536E+01 5.896576317090E+01 -5.527302074249E-02 6.149984119052E+00 2.807980858322E+03
 6.114387654716E-02 7.869775353715E-02 4.847120648149E+00 6.542852022771E-01 -2.866795458584E-02 -8.350375161537E+00 2.437692147647E-01 -2.006101664663E-01 2.060474330583E-01 2.672786519110E-01 -1.672444793609E-02 1.409847378433E+00 -6.535562650594E-01 5.604135288909E-03 -1.701275010270E+00 -2.079781021876E-01 2.597696098835E-01 9.379952951370E+00 -1.354716879417E-01 5.548201656129E-01 -4.857744251991E-01 -6.935209710835E-01 -3.418960963912E-01 -1.882344233964E-01 -1.712799133006E-02 -8.148798425411E-02 9.659582821719E-02 1.352407121562E+00 -7.371005301142E-01 3.245307186211E-01 -4.879965029439E+00 1.471576763513E+00 -8.262670143827E+01 -8.466726181829E-03 -1.119925675334E-01 -1.004599782947E+01 -1.043438534599E+01 5.898172701926E+00 -8.059503411319E+01 -2.515534262582E+00 1.115963687216E+01 -8.208010093917E+01 -4.251803098007E-01 -5.339138216652E-01 9.487627554909E+00 1.747134242799E+01 -1.861399989638E+01 1.910037064547E+02
 1.520351665731E-01 1.020541217876E+00 5.895909318548E-01 1.155190866166E+01 -3.819795482999E-01 1.563195660732E+00 2.728130756941E+00 -1.514229647226E+00 3.313823926100E-01 3.553845192297E+00 -1.455962782185E-01 -5.495708065493E-01 -5.884826626541E+00 4.710570377835E+00 -3.111678888237E+00 -4.374712298316E-01 -5.562235909178E-01 4.645149857369E-01 -2.192200984236E+00 2.990020205853E+00 -7.171902275536E-01 -1.041159148118E+01 -1.360029695281E+01 -2.782729789741E-02 1.128531308347E+00 -5.081871175954E+00 1.263417064154E+00 4.538984301960E+00 -6.280526629757E+00 -2.336712952067E+00 4.135903978141E-01 -1.047502298475E-01 3.615825221687E-01 -1.503438602979E+03 -5.260322549506E+02 -4.169394080467E+00 -5.900733114217E-01 2.060173407642E-01 4.542432342075E-02 -1.272135478677E+03 4.375838384478E+02 -1.230421476105E+01 4.775467632374E+01 -2.270357931415E+00 -6.212768328039E-02 3.926899850193E+01 -2.308128531184E+00 2.027563111808E-01 3.069915436040E+03
 1.584802433035E-01 -8.313029192956E-02 -1.015552953302E-01 -9.580617103710E-01 -1.357108202522E-01 -5.628079704131E-01 -1.922271834216E-01 5.687719903730E-02 -4.710688814828E-03 1.376422341320E-01 -4.959905689837E-01 3.210225555215E-01 1.435415341963E-01 4.492102734697E-02 3.298081281677E-01 7.019240583809E-02 1.107553197615E-01 -4.120089012980E-02 -8.438062538128E-02 -1.222160951775E-01 1.761867810088E-02 7.400397007867E-01 7.894937670293E-01 -3.351727507152E-02 -4.922390650702E-02 5.128044968743E-01 -2.267662276297E-01 -3.446429900722E-01 7.993537919681E-01 -2.951589853192E-01 -3.619162393567E-01 7.481170633206E-02 -1.388771512618E-01 -5.383465084719E+02 -8.689222515021E+02 2.496948839453E+00 6.451096621531E-02 1.192009985751E-02 -6.277503952933E-02 4.202014221541E+02 -7.213557209971E+02 7.540015466219E+00 -8.566428420079E+01 2.408901281362E+00 -4.961426361900E-01 7.169679463629E+01 -4.654205866802E-01 6.558138494430E-01 8.900783079382E+01 2.536736328388E+03
 -5.910566268470E-02 -5.289772008970E-02 -1.985416887174E-01 -5.544795512674E-01 2.348128814591E-01 4.805346693157E+00 -1.821616496454E-01 2.076411188474E-01 -2.555542077364E-01 -4.936909754270E-01 4.177177243691E-01 -1.168599663261E+00 3.675256980456E-01 2.011395578269E-01 1.487142389354E+00 3.077678920208E-02 -1.995084893182E-02 -4.889244907746E-01 2.009683664382E-01 -3.790153449344E-01 5.148071569015E-01 8.263553929138E-01 6.225411364502E-01 8.900206091772E-03 -1.300073465852E-01 -1.781057871419E-02 -1.522332133458E-01 -7.157491906841E-01 -3.559957620659E-01 2.532055763964E-01 7.782053542860E-02 8.119406607807E-02 -1.040657315479E+01 -4.894626084068E+00 2.379475134459E+00 -7.055988695400E+01 1.321413602700E-02 1.101955405924E-01 4.468459118172E+00 -1.135580243292E+01 7.358868102397E+00 -7.579900866763E+01 1.017375857483E+00 -5.958693707254E-02 1.108403396654E+01 -6.016250802644E-01 2.009765628737E-02 9.461767685570E+00 1.829479644393E+01 -1.512442452370E+01 1.508407467735E+02
 1.501208439595E+00 2.668834182073E+00 1.544757053534E+00 -1.199248177963E+03 4.452251912858E+02 -1.625108702523E+01 7.447500944195E+00 -4.644008487730E+00 6.331119277277E-01 1.203828123513E+01 -3.862335610872E+00 -1.580091154424E+00 -1.684838700312E+01 1.347896030368E+01 -1.016083604008E+01 3.807800432062E+01 -2.310516147065E+00 1.777750752709E+00 -7.822022614534E+00 8.909809614422E+00 -1.546499529966E+00 -4.703610661105E+01 -2.315784148821E+00 -6.157656491254E-01 3.020604095632E+00 -1.148479459262E+01 3.965727354823E+00 1.026807067589E+01 -9.764800631170E+00 -4.027746680747E+00 1.608056111509E+00 -4.060537131224E-01 8.315606926259E-01 4.291944091975E+00 4.573868654401E+00 8.573082615528E-01 -2.915852013637E+00 2.955083631231E-02 1.024474137189E-01 -1.124558800457E+03 -3.805673295285E+02 -8.521326225833E+00 -3.058666035386E+00 -2.899096330824E+00 -7.245279663947E-01 3.888672297856E+01 -4.472355498099E+00 -1.936906543417E-01 -3.018408722425E+01 -3.198595346206E+01 6.157944887475E-01 2.694987834946E+03
 -5.285665970086E-01 6.532001553806E-01 -8.706319468055E-03 4.540994623212E+02 -7.304031538142E+02 1.317543659153E+01 4.681399705562E-01 1.412837311649E+00 9.782122633973E-02 -2.835359800725E+00 4.612845580295E+00 -1.368835887391E+00 -1.944764307832E+00 4.338046400278E+00 1.720854343575E+00 6.684333402085E+01 -2.193636878738E+00 1.650052903688E+00 1.389740434497E+00 -1.757619161062E+00 -1.730026401091E-01 -3.238543455178E+01 5.921807345447E+01 -1.915367148661E+00 -7.601416941823E-04 -4.657015951433E+00 -2.770450122587E-02 5.390697601898E-01 -1.848637306881E+01 -4.404475718698E+00 7.979730763021E-01 7.663922936393E-01 -2.210594421580E-02 1.181144113485E-01 6.564337136899E-01 -6.144008428076E-02 -5.090605458067E-01 1.290806351303E+00 -6.432328848806E-03 -3.830318066217E+02 -6.736329500224E+02 3.287033095723E+00 -4.121647450465E-01 -1.086666511092E+00 1.766932081992E-01 -6.582437391442E+01 -1.358954975969E+00 -4.364239080225E-01 3.165026371999E+01 5.819913431542E+01 -3.048912198119E-01 -1.364300169632E+01 2.811110541250E+03
 -1.361067692259E-01 2.965385498810E-01 2.576673959494E+00 -1.844083443074E+01 1.195954313596E+01 -8.931517520712E+01 3.712818623018E-01 -5.967029917788E-03 -7.933509415667E-01 1.262632697445E-01 3.310125405932E-01 2.325589579558E+00 -2.734503305437E-01 2.943618070407E+00 1.314687487827E+01 7.162222023278E-01 -2.456619751475E-01 6.830541830093E+00 -7.707830532447E-01 -8.981630583822E-01 2.218290529950E+00 -2.057230749216E+00 -2.801490774089E+00 9.942615396805E+00 -4.523182909643E-01 -1.861232876825E+00 -4.789525542934E+00 -3.674172816131E+00 1.859411829851E-01 -3.431007223937E+00 2.717244196599E-01 6.071645854860E-01 3.640526629661E+00 2.698951579920E-01 1.359726500785E+00 3.465055240627E+00 1.526960022388E-02 5.177119554248E-02 -9.163485646021E+00 -4.806229275510E+00 3.608925499876E+00 -8.009437531897E+01 -1.988636734453E-01 -1.154190562601E+00 1.051867763283E+00 2.025286283389E-01 -8.839592535012E-01 7.026576394486E+00 -1.895694841004E+00 -1.480138496099E-01 1.039319088161E+01 2.867072567959E+01 -4.105555871391E+01 1.949763585907E+02