#BIOSYM hessian 1
@Type: Hessian Update
@Units
 distance: 	A
 energy: 	Kcal/Mol
#header
@natom 67

#label
C1      C2      C3      C4      C5      C6      C7      C8      C9      C10     C11     C12     C13     C14     C15     C16     C17     C18     C19     C20     C21     C22     C23     H24     C25     C26     C27     C28     C29     C30     C31     C32     C33     C34     C35     C36     C37     C38     C39     C40     C41     C42     C43     C44     C45     C46     C47     C48     C49     H50     H51     H52     H53     H54     H55     H56     H57     H58     H59     H60     H61     H62     H63     H64     H65     H66     H67

#element
C  C  C  C  C  C  C  C  C  C  C  C  C  C  C  C  C  C  C  C  C  C  C  H  C  C  C  C  C  C  C  C  C  C  C  C  C  C  C  C  C  C  C  C  C  C  C  C  C  H  H  H  H  H  H  H  H  H  H  H  H  H  H  H  H  H  H 

#matrix
201
 2.784576866566E+03
 -2.556343752498E+01 2.818503816499E+03
 1.134011770837E+01 -3.154392804156E+01 1.940579602961E+02
 3.999481382862E+01 6.721779012032E+01 -8.478999771453E-01 2.794047864636E+03
 -6.621023634316E-01 -1.266914069170E+00 1.091179123503E-01 -2.326956674684E+01 2.765211477974E+03
 1.106749141237E-01 4.775697638395E-02 8.410182769727E+00 1.147676505077E+01 -3.451944690516E+01 1.921477508574E+02
 -1.964529381965E+01 3.465754269120E+01 -5.424921588884E-01 -2.754827659789E-02 -3.401179228472E-02 1.059912896847E-01 2.811903332116E+03
 -3.378086007254E+01 5.972896177716E+01 -8.049825041767E-01 7.427244098828E-02 -6.920155943077E-02 6.614367994527E-02 -3.179070971124E+01 2.818774860363E+03
 1.327416542127E-01 -2.885752459412E-01 9.780006490269E+00 -7.033010669481E-02 3.517090093881E-02 -3.324492442841E-01 1.137381352171E+01 -3.470624240057E+01 1.967491712144E+02
 3.885449337935E+01 -6.822419766132E+01 1.079770603423E+00 -1.948866262160E+01 3.525850462816E+01 -4.859337795794E-01 4.223460557354E+01 7.175881863666E+01 -8.593526981231E-01 2.788958893943E+03
 -5.691584460886E-01 -5.100322422948E-01 1.234184598959E-01 -3.278091588087E+01 5.930190251835E+01 -9.466493546990E-01 -5.756039137908E-01 -1.125444721905E+00 2.526777726292E-01 -1.941373345636E+01 2.831329874728E+03
 1.794956379073E-01 -2.717360784518E-01 9.643660953758E+00 3.163991446434E-01 -5.908395524492E-01 9.580612586685E+00 1.782750219291E-01 3.698140612377E-01 9.662775398017E+00 1.092427680009E+01 -3.484369119075E+01 1.960993392689E+02
 -1.615841082807E-01 -8.208869786690E-02 1.136292335306E-02 6.544398344370E-02 -8.197189880693E-02 7.030544563265E-02 4.150247110329E+01 -7.348657061066E+01 1.065479433448E+00 -2.137421348100E+01 3.826467223028E+01 -6.181852104028E-01 2.632007638755E+03
 -5.413173911212E-02 -2.828889648241E-01 3.975421685370E-02 -9.310890030794E-03 -3.470360875194E-02 2.806710907378E-02 3.196938526957E-01 -3.068186119108E-01 4.637833627112E-02 -3.523412166556E+01 6.276270708089E+01 -7.957308893238E-01 -2.230305115037E+02 2.900741257528E+03
 1.675920674199E-02 -1.419207805875E-01 -1.529579096083E-01 1.139064923743E-02 -4.793405929029E-02 2.047388104937E-01 1.074528207803E-01 -1.153476542310E-01 1.014211272710E+01 2.816792968233E-01 -6.179356371172E-01 1.017028243458E+01 1.192980868319E+01 -3.744302152016E+01 1.556875031568E+02
 -1.230957228354E+03 4.464530361242E+02 -9.978553423159E+00 -4.653198532734E+02 -9.214187603937E+00 -1.501806667228E+00 1.481335445867E-02 -3.807288896080E-02 -3.493238694190E-03 -1.203862506057E-01 -2.126450293551E-01 7.356485217255E-02 -1.070069574899E-02 -1.002726632897E-02 1.478185120178E-02 2.823055657402E+03
 4.413130148457E+02 -7.418637186075E+02 9.757491091867E+00 -8.368436272278E+00 -1.432822760201E+03 1.754096700719E+01 -2.579407358175E-02 7.820168987626E-02 1.199530591791E-02 -4.055144072561E-02 4.262607417510E-01 -1.425769572639E-01 2.199850824898E-03 3.034499243539E-02 -4.864041565397E-02 6.412678555442E-01 2.783056416576E+03
 -1.012743208833E+01 9.792441962365E+00 -8.362613875150E+01 -1.624747068016E+00 1.710429886728E+01 -8.120424864517E+01 4.750342367397E-02 7.179839901350E-02 4.785672283252E+00 6.788011192265E-02 -5.775288110750E-02 -9.210055875073E+00 7.543707395215E-02 1.194091462628E-01 2.004822523472E-01 1.092106920494E+01 -3.240126458248E+01 1.934887000330E+02
 -1.196467249289E+03 -4.084949506997E+02 2.798508660316E-02 -1.760975387569E-01 1.798000666704E-01 1.098650484355E-01 -1.258926339426E+03 4.506745124456E+02 -1.058863576962E+01 -4.840792002596E+02 -1.391895626782E+01 -1.589605310477E+00 9.934157216705E-02 1.797489406199E-01 1.387921047414E-01 -1.942074231639E+01 -3.314252298482E+01 2.111378383559E-01 2.819180175029E+03
 -4.084732816922E+02 -7.008531762469E+02 5.771536870431E+00 2.122151459423E-02 4.922465585538E-01 -9.035141351446E-02 4.521553262353E+02 -7.508066742450E+02 1.036937865299E+01 -1.630057272974E+01 -1.512093744743E+03 1.873894147166E+01 3.086574910644E-01 1.086207134358E-02 -1.209864318691E-01 3.460829797707E+01 5.851544051723E+01 -5.805847016331E-01 -3.019949484167E+01 2.846626096814E+03
 2.945053013822E-01 5.822880195807E+00 -8.235477756200E+01 -3.307407415648E-02 -5.349032184908E-02 -9.447243170948E+00 -1.069119383641E+01 1.054564104551E+01 -8.630731915824E+01 -1.538405469918E+00 1.861691269763E+01 -8.602569588060E+01 1.449751459214E-01 1.021395128176E-03 -9.543756022452E+00 -5.501894093773E-01 -7.974654088334E-01 9.179403222840E+00 1.175502868317E+01 -3.419621560954E+01 1.978180901805E+02
 -4.287261579554E-01 -6.186743913117E-01 1.073901488578E-01 -1.222664935682E+03 -4.190877904697E+02 6.599333946061E-01 5.559803356507E-02 -4.884465593204E-02 -7.097725320754E-02 -1.224218889306E+03 4.410662780301E+02 -1.035918357110E+01 -2.206976105203E-02 -3.588234285479E-02 1.036632841734E-01 3.723660142839E+01 -2.897041714592E-01 2.541008029378E-01 4.180618448338E+01 -5.299765753809E-02 3.423695068799E-01 2.807471429867E+03
 3.190381517160E-01 1.179143930551E+00 -1.001503479933E-01 -4.212849853848E+02 -7.033376512106E+02 6.633043468865E+00 2.621999797640E-02 9.079760225264E-02 6.796392890899E-02 4.393945810279E+02 -7.379504333061E+02 1.072215621031E+01 1.179782983599E-01 9.435620582020E-02 6.208278683746E-02 -6.675830807453E+01 2.910397592854E-01 -2.341382206768E-01 6.971426420336E+01 -1.462738015167E+00 2.859693013904E-01 -8.356701122199E-01 2.807306646085E+03
 3.059982628226E-02 -4.276870473071E-02 -9.037056021838E+00 1.102274254541E+00 6.865655913530E+00 -8.296163280610E+01 -1.034807382071E-01 5.033522092689E-02 4.622139637822E+00 -1.060119872603E+01 1.088903814802E+01 -8.440480050973E+01 1.478310738248E-02 1.773364768399E-01 5.190989004819E+00 8.417738646416E-01 4.092893259224E-02 9.055047910367E+00 -7.616726947558E-01 4.646532310399E-02 1.007688278547E+01 1.098309832965E+01 -3.715823365803E+01 1.959344118505E+02
 -1.975807896019E-01 -6.248390917893E-01 -5.296000155524E-02 9.272186501786E-02 -6.259712235719E-02 -3.742433523321E-02 -1.199022029053E+03 -4.056566475800E+02 8.027562115219E-01 -9.501976634912E-02 -1.640209154731E-01 2.066134417486E-01 -5.204378409410E+02 5.002010033105E+00 -2.155255103316E+00 -3.248355938349E-02 2.349890978029E-01 -2.712191857606E-01 -1.952701567245E+01 -3.338751950169E+01 2.411414813114E-02 -3.444274209298E-01 2.857557639242E-01 -1.976870014644E-01 2.769279039028E+03
 4.473960042254E-01 5.269803566095E-01 1.306768835547E-01 -9.260679245160E-02 1.205914486719E-01 7.336352631511E-02 -4.141549805498E+02 -7.007341402924E+02 6.547570047540E+00 -2.674565262737E-02 6.421007473223E-01 -8.761048801709E-02 7.158429448049E+00 -1.635630197398E+03 2.155609078689E+01 1.386416840139E-02 -1.519147481741E-01 1.543126851032E-01 3.436545586131E+01 5.885742585288E+01 -5.204694717673E-01 2.970404020437E-01 -4.671738979662E-01 -3.221663597246E-02 -3.212864825576E+01 2.961790941936E+03
 6.813609814581E-03 1.208699839224E-01 4.275461157395E+00 1.789407945712E-02 3.464678386510E-02 -6.877900701447E-02 6.823042459282E-01 6.496050206537E+00 -8.382080574243E+01 7.873423335677E-02 -1.399147514586E-01 -1.053166698301E+01 -1.881245972735E+00 2.166715784005E+01 -7.808538027147E+01 -5.990079121932E-03 9.106062244701E-02 -3.669771768701E-01 -5.809940777365E-01 -7.087789723653E-01 1.087532408763E+01 -6.585212473781E-02 2.514653776961E-02 2.629759644992E-01 1.230828817730E+01 -3.879325442708E+01 1.836777628369E+02
 3.300901123032E-01 2.032260746931E-01 -4.630460011635E-02 -1.037079363096E-01 8.064426154328E-02 3.425568296241E-02 8.675326668232E-02 -5.666930675607E-02 1.346983286739E-01 -1.198453610935E+03 -4.146812857488E+02 9.942992222559E-01 -1.331197025551E+03 4.972783139926E+02 -1.061740646704E+01 1.314338396714E-02 -2.087465840358E-02 -9.312679865364E-02 3.803294925499E+01 -6.814274935345E-01 -7.135536001793E-02 -1.921266342874E+01 -3.283427116991E+01 1.150263078287E-01 4.992179951444E+01 1.327853262899E-01 5.531420451543E-02 2.880693194038E+03
 -1.068528189048E-01 1.712866797472E-01 4.409718915051E-02 8.253657173679E-03 -8.404420667329E-02 -2.156044434624E-03 -5.785473232056E-02 -3.077885230142E-03 -5.889074461515E-02 -4.064677015169E+02 -7.009304742285E+02 6.306774057836E+00 4.953478491867E+02 -8.255304903799E+02 1.118702137837E+01 4.057450835845E-02 -4.677998275203E-02 -6.978286009426E-02 -6.869090382427E+01 8.303375374112E-01 -1.983303339462E-01 3.445462244821E+01 5.839984816376E+01 -5.781313605901E-01 8.111135053309E+01 3.734686029057E-01 4.036349687907E-01 -9.935609935152E+01 2.846511027182E+03
 9.682624039545E-02 -6.031988179255E-01 4.313788847956E+00 1.274236791381E-01 -1.831002282083E-01 5.781091131555E+00 2.188849965867E-01 -9.199933097455E-02 -1.041711157337E+01 1.037525481507E+00 5.991467685443E+00 -8.270095150386E+01 -1.034511834034E+01 1.147512720513E+01 -7.745463365208E+01 5.451394821966E-02 1.745600496337E-02 6.294771578432E-01 1.077269681756E+00 2.896662676547E-01 1.009399107926E+01 -4.361192382878E-01 -8.581343093779E-01 7.756145616791E+00 -1.386073113359E+00 4.743732920110E-01 1.005213018923E+01 1.120697155592E+01 -3.473073598681E+01 1.864490615845E+02
 -6.105214114844E-03 -9.340731590259E-02 -4.436071361064E-02 -1.017904979140E-02 1.275058754462E-02 3.776211860495E-02 -4.335701860155E-02 2.796240589036E-02 2.040428725962E-02 4.857457664167E-03 -6.468914140170E-02 6.346021936809E-02 -3.597324145367E-02 -3.697512089760E-02 -4.098167546340E-02 2.724618200095E-02 4.623834971094E-02 -1.026773120148E-01 1.246254736272E-01 8.459754472684E-02 -1.073772454668E-01 -4.230487494716E-02 5.587743751677E-02 -1.122854431788E-01 3.434404030584E-02 3.568625251405E-02 -9.174271626106E-04 5.952543908341E-02 -1.433831675845E-02 3.168873464076E-02 2.808507563541E+03
 -1.498276110698E-01 -2.065486680694E-01 5.211807376028E-02 1.838272329503E-02 -1.179055670649E-01 -4.315385068315E-02 -5.387552901873E-02 -8.128312674928E-02 7.522941335256E-02 1.687256783616E-02 -2.414899577598E-01 4.586762660265E-02 -1.231018059838E-01 -1.004605513664E-02 -1.158488375119E-01 -2.991774327647E-02 8.798613121094E-02 5.762429228790E-02 2.097470202644E-01 2.379307668993E-01 -3.744190660343E-02 -1.012811630098E-01 2.080605519504E-01 2.795254942723E-02 -1.007414561649E-01 1.913982360414E-01 4.462402545840E-02 1.677063692299E-01 -1.719998153746E-02 -2.412528379342E-01 1.597946192036E+00 2.800576297712E+03
 -7.079444278930E-02 2.284809879356E-01 -8.411416958076E-02 1.763379738656E-02 9.912266375997E-02 -3.740919919487E-01 -1.425519387809E-01 8.490186236553E-03 9.600197918094E-02 -8.020006600634E-02 1.311277869708E-01 -2.193683395393E-01 -1.139407525734E-01 -3.243823607554E-02 -2.152799003925E-02 -5.452385438847E-02 3.466073957204E-02 4.373337416699E+00 6.520649074245E-02 -1.730804695165E-02 1.460917958761E-01 -6.303342077565E-02 -3.473580354237E-02 2.462116702230E-01 1.370546511594E-01 -1.508611730271E-01 7.028585386614E-02 1.974226070283E-02 1.267074018160E-02 -5.901420243670E-01 8.545637476472E+00 -3.309159717500E+01 1.941801909117E+02
 3.097948154901E-02 -7.245492949385E-02 2.917929726926E-02 5.916186812757E-03 4.681441695842E-02 -7.641173939046E-02 1.069897870739E-02 -3.975123307699E-03 1.589788124667E-01 3.225847839952E-02 1.491908080188E-02 9.588367875704E-02 2.947371216265E-02 -8.885986486749E-02 -9.809520329582E-02 -1.835308155153E-02 5.641691507314E-04 -8.025613771432E-02 -5.374675215403E-02 2.195446135937E-02 -1.462427337877E-01 -4.693642343312E-02 1.565627278353E-02 -6.787947479495E-02 6.493141669147E-02 -2.763091693942E-02 -4.304062619187E-02 -4.884824069568E-02 5.900254908669E-02 -2.124258068423E-01 4.124263939257E+01 7.185005376680E+01 -9.172215003274E-01 2.779566573228E+03
 -2.270723441539E-01 -5.651098706028E-01 9.696334688180E-02 3.213903033156E-02 -1.359646472688E-01 -1.940558778331E-01 -5.593795888285E-02 -8.264586856690E-02 1.007871200704E-01 1.002094400443E-01 -3.703821142709E-01 -5.034038829601E-02 -1.062497876213E-01 -5.627149031494E-02 -9.163691002560E-02 -2.868459380021E-02 5.213712629264E-02 6.525966986287E-02 2.635710574606E-01 3.911094178499E-01 8.720443562160E-02 -1.639923145715E-01 3.219030527163E-01 1.907704319116E-01 -2.328301134106E-01 3.452598870395E-01 2.923691915095E-02 1.488788989571E-01 -8.516368632055E-03 -3.337177488658E-01 -1.011036722773E+00 -1.717099548224E+00 1.086727903807E-01 2.797291284031E+02 2.860199601196E+03
 9.068730560168E-02 -2.213685201337E-01 -1.112585394908E-01 4.665634189094E-02 -8.151620099753E-02 4.302303945419E-01 1.004643742357E-01 4.442047310685E-02 -4.839646617434E-01 5.084543690691E-02 -9.255356552175E-02 -1.792959130323E-01 1.039912057838E-01 1.006410946804E-01 4.131438592379E-01 7.734855934625E-03 -1.462640766404E-02 2.419873080227E-01 -2.337379134334E-02 1.038844243071E-02 2.886155221776E-01 1.042205030108E-01 -3.797135620932E-02 -7.623879829906E-03 -2.513157708780E-01 1.365831287445E-01 -1.520951626752E-02 -6.222148093142E-02 -9.283793725158E-02 1.064871212200E+00 4.308815856726E-02 3.048721100147E-01 1.058790568616E+01 5.842945632812E+00 -3.765767982314E+01 1.501401053947E+02
 -1.986036868385E+01 -3.385960575236E+01 2.200022182697E-01 3.870596832577E+01 -2.568532741160E-01 2.909449120286E-01 1.278730873594E-01 -5.437360689919E-03 -7.296394598562E-03 -2.977436111770E-02 2.787090710141E-01 1.689937523880E-02 1.094482999713E-01 -1.760038289829E-02 5.460166416945E-02 -1.245887919422E+03 -4.344118503946E+02 5.177401768284E-01 -2.454930607440E-01 -3.188177533633E-01 -1.041032072003E-01 8.656361109360E-02 -2.294677411449E-01 -6.250773692359E-02 1.003063564701E-01 -2.130514402325E-01 -3.432315345473E-02 -1.643285778181E-01 3.165748138817E-02 7.092409587853E-02 -1.931039807742E+01 3.437101114863E+01 -4.588742487740E-01 -7.401822018943E-02 1.585288847819E-01 -7.739339155703E-03 2.774540111755E+03
 3.547217421575E+01 5.976307764074E+01 -3.643570987673E-01 -6.786647643449E+01 2.192748135432E-01 -5.450882006113E-01 -2.305643415213E-01 -8.198697243370E-02 2.506616216554E-01 1.129891617789E-01 -7.686536789881E-01 -3.263417674588E-02 -2.948552215825E-01 -1.292821264488E-01 -2.442457610788E-01 -4.390154421958E+02 -7.250578038133E+02 5.847267003468E+00 7.838889115942E-01 8.261657563393E-01 9.840521292275E-02 -3.989189157982E-01 6.947331033255E-01 3.085620439750E-01 -3.516990120212E-01 5.789637000172E-01 7.216704855237E-02 3.830915513375E-01 -6.712753382379E-02 -7.566276431925E-01 -3.280896758612E+01 5.688538752443E+01 -5.739003057602E-01 8.073966350686E-02 -4.399345685704E-01 -2.594526841930E-01 2.052187720974E+01 2.806966295838E+03
 -5.003195737126E-01 -1.009327406169E+00 9.785405337242E+00 1.156026782736E+00 -1.625778571824E-02 9.476784760163E+00 6.566388523935E-02 -1.648641149703E-02 -9.283238991280E-02 4.977113315750E-02 -1.560262755738E-01 1.390990422636E-01 2.851845735119E-03 4.685025867060E-02 1.454388628366E-01 3.322511908571E-01 5.901615136956E+00 -8.306202239214E+01 2.269015110377E-02 1.780160384582E-01 4.470792556732E+00 -5.734068540709E-02 1.104162904868E-01 4.267010456001E+00 -1.456606019813E-01 1.711590128989E-01 -2.083572272572E-01 5.235895458103E-02 -5.520239936957E-02 8.047146472299E-01 3.045875059751E-01 -6.333125668209E-01 8.554740711454E+00 -1.696199812150E-02 -1.411051304557E-01 2.789513441640E-01 9.915886479224E+00 -3.061920525937E+01 1.918933834541E+02
 -1.639310712796E-01 -4.739481142056E-01 1.453793907082E-02 -1.881282878929E+01 -3.162142824761E+01 2.187556478340E-01 -4.165257148260E-02 2.829646259963E-02 -2.473136787342E-02 1.346637850892E-01 -2.611422386989E-01 -5.949893199343E-02 -3.778586421957E-02 -5.469201341137E-02 -2.817898076113E-02 -6.250663703283E-02 -1.888410261460E-01 1.605283536083E-02 1.475353351399E-01 2.596797588551E-01 7.311790379552E-02 -1.241832995053E-01 2.562190492563E-01 4.911733680432E-02 -1.182621099367E-01 2.137421555240E-01 7.019697910397E-02 8.639569646904E-02 6.632105340711E-03 -1.160996770423E-01 3.971652833044E+01 -6.919403212213E+01 1.090121304536E+00 -2.282688948479E+01 4.014911104926E+01 -6.975637043048E-01 3.991555637283E+01 6.670888566927E+01 -8.989270952721E-01 2.771927617198E+03
 -3.192993396810E-01 -8.897043216236E-01 -5.047549222965E-03 3.360021450784E+01 5.567883710373E+01 -5.458537497892E-01 -1.409658563231E-01 -1.694566884567E-02 -3.153142661400E-02 1.093804446873E-01 -4.426373587315E-01 -1.033613067367E-01 -1.506167952957E-01 -8.140552785750E-02 -1.149395446605E-02 -6.105546844335E-02 1.760040142638E-01 -4.385533094630E-02 4.871368794798E-01 5.768605154867E-01 9.873388166889E-02 -2.214899410908E-01 3.693898302365E-01 1.840752266775E-01 -2.547356193546E-01 3.963028860109E-01 6.687972943755E-02 2.082034440566E-01 -8.706774603007E-02 -1.234800267726E-01 -1.451557678350E-01 -1.475366341253E-01 1.802772404286E-01 -4.214886962462E+01 7.366861557102E+01 -1.076751996099E+00 1.943564043937E-01 -8.786763385495E-01 -1.753285729625E-02 -3.680378274739E+01 2.754423492689E+03
 9.448999779637E-03 4.320026587397E-01 -2.795096583385E-01 -4.055697738795E-01 -6.589802246531E-01 7.476349230946E+00 -1.362286330965E-01 -3.458781354073E-03 -3.684459404021E-01 -5.894708393896E-02 1.370578819636E-01 -5.802945472828E-01 -1.463001534258E-01 -1.877980788876E-01 -1.438153456368E-01 -7.137893972394E-02 -1.493350317693E-01 -9.555193182907E+00 8.579671022686E-03 3.576622710840E-02 4.269647348328E-01 -1.907850291792E-01 1.573178396493E-01 4.638929171558E+00 3.371011278999E-01 -2.895338747560E-01 8.934622626125E-01 7.741198889018E-02 1.307169752581E-01 -1.866748870703E+00 1.200418294654E-01 -1.179543046288E-01 1.017658007538E+01 5.780658749826E-01 -7.279546658005E-01 1.196748181364E+01 -1.516379567812E-02 6.589028449523E-01 8.443194062756E+00 1.132971804454E+01 -3.516361403038E+01 1.870144498626E+02
 9.997856384083E-03 1.299195613299E-01 2.620246715617E-02 3.828503870629E-02 -9.537180261033E-02 2.628630568738E-02 9.928473337912E-02 -1.531228851294E-01 -3.905192761512E-02 -2.177750955199E-02 -5.078238751224E-02 -6.264445680494E-02 -3.350662454382E-02 5.897543342729E-02 5.238887203014E-02 9.837746159414E-03 6.703220911540E-02 8.315120518054E-02 -9.666052674736E-02 4.512614986114E-03 9.407461469222E-02 8.901695257493E-03 -1.678907189858E-02 9.087566421816E-02 -6.629800297364E-02 -1.124568430748E-02 2.331977390252E-02 3.078286291084E-02 1.498402830121E-02 3.983167281280E-02 -1.235941922658E+03 4.330699329838E+02 -9.281656400874E+00 -5.057918753606E+02 -1.613500604550E+01 -1.128958478355E+00 -5.005195149928E-02 1.540472971938E-01 -1.180201364574E-01 -1.410850218049E-01 -1.496911146315E-01 -8.721437736398E-02 2.840844911227E+03
 3.246692212680E-01 6.616467727108E-01 -7.814470589673E-02 -4.816914402589E-02 1.877940395573E-01 1.710535388217E-01 1.176835879936E-01 6.727667215528E-02 -9.264999819043E-02 -1.023282390854E-01 4.872606050122E-01 2.609573267932E-02 1.728489383079E-01 6.867990979030E-02 1.386826095175E-01 5.500079906709E-02 -8.767709270878E-02 1.107086300714E-03 -4.279785975523E-01 -5.012423396000E-01 -4.236976387817E-02 2.253211712074E-01 -4.285214833838E-01 -1.422754345222E-01 2.358095132050E-01 -4.081260787709E-01 -8.726954711793E-02 -2.441963462123E-01 3.491382457370E-02 4.053905701563E-01 4.353721910248E+02 -7.290086997987E+02 9.871430463457E+00 -2.605593656388E+01 -1.540975531396E+03 2.098562733512E+01 -3.479482075027E-01 5.489258576619E-01 2.610664621360E-01 3.694263884101E-02 6.562710880889E-01 -1.965613057468E-01 3.008001719272E+01 2.893967573180E+03
 -4.138243693653E-02 3.062387012970E-01 3.926363460457E-02 -1.351257621457E-01 1.451629366709E-01 -7.840568939989E-01 -7.604607034664E-02 -3.952980134537E-02 -1.895518159982E-01 -7.784420690195E-02 2.300710997365E-01 -6.895451118748E-01 -4.086389541529E-02 -3.637913830546E-02 -4.894844259492E-02 -3.053919947628E-02 -4.928751259724E-03 -1.507819668123E-01 -4.720654141911E-02 -1.132193283035E-01 7.459232610891E-01 5.420021306696E-02 -8.352083677249E-02 8.737603855819E-01 6.099064640348E-02 -1.448116752710E-01 6.320361208138E-01 -6.239682864029E-02 5.347671135161E-02 -1.627675876310E+00 -9.517331612505E+00 9.934535483909E+00 -8.478511728024E+01 -1.067861991208E+00 2.106845623943E+01 -7.751184160178E+01 -5.256975719062E-02 4.647676254576E-01 3.986861626091E+00 1.453605144166E-01 7.066788302404E-03 -9.455807018801E+00 7.931239345597E+00 -3.786739868616E+01 1.858960569993E+02
 -8.191133871783E-02 -2.946875963564E-01 5.841768529536E-02 -1.606637439693E-01 -6.073093896332E-02 7.311397935550E-02 -3.294975475367E-03 -2.883257122464E-02 -2.786300971594E-02 -5.944770190359E-03 -1.767422032606E-01 -1.541620089181E-02 -1.726528416422E-02 2.960392616456E-02 6.074419645006E-02 -1.962048552434E+01 3.488984082756E+01 -3.694265701918E-01 1.303434688742E-01 1.390764792967E-01 1.032384411254E-01 2.151586519695E-02 9.719254995216E-02 1.019911391500E-01 -1.805940708378E-01 2.163134112329E-01 -5.206364247718E-02 4.990812609378E-02 -4.000741949172E-02 1.900879420851E-01 -1.219724193900E+03 -4.267943246248E+02 1.336182232251E+00 -9.510881441217E-02 -2.691937382825E-01 1.178179570662E-01 -1.174336766198E+03 4.221082346201E+02 -8.987149565971E+00 -4.696942915944E+02 -8.748311841163E+00 -1.495996784874E+00 -1.947165671560E+01 -3.389822711599E+01 3.100050469447E-01 2.749084480680E+03
 3.641979948473E-01 7.531201739717E-01 -5.967720055354E-02 -5.491638599112E-02 3.048705478980E-01 6.153817372818E-02 2.015641218490E-01 -1.425752456241E-03 -1.076110921962E-01 -1.118918880513E-01 5.097302104716E-01 1.018064929383E-01 1.569180623754E-01 2.971056862628E-02 8.048060316050E-02 -3.287836789770E+01 5.815826661191E+01 -8.915715242384E-01 -5.408497098902E-01 -5.061665266540E-01 -1.689470699893E-01 1.930712274416E-01 -4.835577129626E-01 -3.263977296449E-01 3.786352932886E-01 -5.041142964184E-01 1.932300247142E-03 -2.071361167961E-01 9.448613410431E-02 3.443534103772E-01 -4.295237597802E+02 -7.158547679068E+02 6.603302912313E+00 -3.056589896709E-01 2.061709520234E-01 -1.090093208836E-01 4.233396366647E+02 -7.163492012069E+02 9.500828716007E+00 8.227898428283E-01 -1.496647550893E+03 1.876550700218E+01 3.431638155675E+01 5.903355900454E+01 -7.699826524449E-01 6.099198240199E+00 2.811904933496E+03
 7.153129224120E-02 -9.107069926821E-02 4.507951042863E+00 -3.526359695104E-02 -1.176392332234E-01 -8.810168308333E+00 7.768316549532E-02 1.691734479927E-02 -6.972190205491E-01 -9.927805160743E-03 2.777994975521E-02 -7.717849316770E-01 9.314539994024E-02 1.753064614574E-01 6.513284551867E-01 2.774507266418E-01 -5.004682798216E-01 9.490952964538E+00 -4.751116556815E-02 -7.085059339828E-02 1.015599629485E+00 2.793302183278E-01 -1.439247657924E-01 7.605290798939E-01 -4.087328184052E-01 1.593375206274E-01 1.900690142541E-01 -1.296075359091E-01 -1.308355623754E-01 6.698873785425E-01 1.607522974993E+00 6.623682716234E+00 -8.239650845359E+01 -1.876672432155E-01 -5.420981037850E-02 -9.865272091299E+00 -9.322026190483E+00 9.122315906625E+00 -8.063945974924E+01 -1.435118318942E+00 1.854770688440E+01 -8.257271412781E+01 -4.147279488485E-01 -7.657328721068E-01 1.004142982392E+01 8.908150723572E+00 -3.397467097777E+01 1.921967908966E+02
 8.541806699431E-02 3.108179349903E-01 -4.076486191325E-02 -6.998527536045E-03 1.784359090934E-02 5.549900963361E-02 1.554257567262E-03 2.386956220246E-02 9.569337095270E-04 -5.501803597657E-02 1.382756749805E-01 6.353202495208E-02 1.306091993670E-02 5.441550313715E-02 3.163426981470E-02 3.838264371870E-03 -2.850712089531E-02 7.131775725339E-03 -8.532996501872E-02 -1.640645710066E-01 -7.499703315852E-02 5.907615199347E-02 -1.185296819950E-01 -1.068923020271E-01 6.657441454925E-02 -1.175452080218E-01 -9.184794369515E-02 -3.193337657075E-02 -1.400879651732E-02 2.179705825771E-01 1.190498876834E-02 -6.252663448580E-02 2.678849485631E-02 -1.502741694236E+03 -5.300080422090E+02 2.005853432714E+00 5.852528731606E-03 1.366761901387E-01 8.256509518170E-02 -1.280332375531E+03 4.333555198356E+02 -1.128523109420E+01 4.902116254808E+01 -1.196176000628E+00 -3.203043652368E-02 3.882203521567E+01 -9.449484271322E-02 1.657121285083E-01 3.073484274228E+03
 -2.251261377160E-02 -2.004999384737E-04 1.871249936066E-02 -3.005103168651E-02 -5.571214877841E-02 1.435647003716E-01 -4.791767789628E-03 1.183581775901E-02 -9.705335782976E-02 -1.868151488821E-02 -2.474144895648E-02 -4.723349614895E-02 -9.588872097553E-03 7.284946672137E-02 7.539477027322E-02 3.838168245881E-03 -1.311406206025E-02 1.071646406336E-01 4.318436039515E-02 -2.469858733476E-02 1.016048243180E-01 7.277912632592E-02 -2.266684282888E-03 6.011282591490E-02 -6.661459985157E-02 5.228034740231E-02 3.410633545219E-03 3.358479764258E-02 -4.727820418490E-02 2.245767945748E-01 -7.610781410926E-02 -5.990562769121E-02 -2.012298115479E-01 -5.400835240112E+02 -8.692997325258E+02 9.476183396387E+00 8.765656636317E-02 -4.281786079508E-02 7.542775026064E-02 4.181829952674E+02 -7.223523178344E+02 1.065534557759E+01 -8.552202246791E+01 1.917676775219E+00 -2.489065070104E-01 7.202662109644E+01 -8.016990504255E-03 6.514361070364E-01 9.253515539055E+01 2.538735520846E+03
 9.546033761012E-02 -5.089160075390E-01 2.718501875482E-01 2.242508252715E-02 -1.832434678082E-01 5.628709227884E+00 2.290056939714E-01 -1.593396773249E-03 6.198142361792E-01 1.331373254201E-01 -3.188421581152E-01 1.228828665654E+00 1.540011831723E-01 8.740222376603E-02 -1.081722457501E-01 6.179000464649E-02 -2.904613377357E-02 5.065444495410E-01 -4.104131232420E-02 6.812346333046E-02 -1.188340770308E+00 1.032750783239E-01 7.749527147048E-02 -1.162577670737E+00 -2.050300710590E-01 3.410120993396E-01 -1.150169589254E+00 3.688112019998E-02 -5.820431036701E-02 2.351691811484E+00 1.182825218687E-01 -1.568809786937E-01 -1.116598542405E+01 2.029241813568E+00 9.249083739058E+00 -6.981666112149E+01 2.457337442216E-02 -3.359831894340E-01 5.225983197792E+00 -1.120433772102E+01 1.072354751199E+01 -7.857372684468E+01 1.401985598390E+00 2.484305640841E-01 9.170670995071E+00 -5.900243764870E-01 3.140758876670E-01 9.343423414883E+00 1.062184279226E+01 -3.373261635579E+01 1.543849375511E+02
 4.768300717672E-02 2.454267468115E-02 4.630037460104E-02 -1.226778941503E+03 4.465538138496E+02 -1.055171293682E+01 1.748875142204E-02 -7.659090646369E-02 -1.033987969441E-01 -8.633713578705E-02 -2.915142832632E-03 -2.208737304989E-01 -2.869977170647E-02 1.306335569872E-01 1.843408251310E-01 4.025580195655E+01 -2.882378596582E-01 4.840086582410E-01 5.530517144336E-02 1.577033991324E-02 2.729396422491E-01 -1.970483447302E+01 3.580127774416E+01 -4.177115289646E-01 -1.971851292472E-01 5.214448830550E-02 -4.945007267899E-02 2.159298362052E-02 -1.240929616825E-01 2.860758887987E-01 -3.336925754292E-02 -9.130205845413E-02 -1.258996995461E-01 1.443055049314E-02 -9.348976654431E-03 1.540358987877E-01 5.304327872030E-02 -1.557464224110E-03 -1.413560863709E-03 -1.138416414794E+03 -3.895191314968E+02 3.069103826505E-01 -7.359867793079E-02 6.261122969287E-02 8.475800534047E-02 3.682412726973E+01 -2.664783540589E-01 5.109043410765E-01 -1.772622036992E+01 -3.256720509131E+01 4.570817635867E-01 2.730164913312E+03
 3.268450815588E-01 8.493696762644E-01 1.041281464894E-02 4.557587708916E+02 -7.417172366435E+02 1.134921223736E+01 1.187717101053E-01 2.742215250293E-02 -1.179102839788E-02 -1.605828656831E-01 3.317907040550E-01 2.007545310731E-01 1.000198874540E-01 4.116651356461E-02 1.757924751834E-02 6.707621554636E+01 -7.430361430120E-01 3.605530945987E-01 -3.629123476940E-01 -5.251181803077E-01 -1.396255903258E-01 -3.277675340354E+01 5.918070021589E+01 -1.107438024075E+00 2.905622561029E-01 -3.331556541618E-01 -4.051949031467E-02 -9.694354871193E-02 9.740127888599E-02 2.214023837975E-01 8.841641459663E-02 1.623265062201E-01 -1.429679206855E-03 -1.957744985110E-02 2.934194662424E-01 1.223933930285E-01 -2.716196964245E-01 6.447425662173E-01 7.113307752938E-02 -3.875197927266E+02 -6.697793562440E+02 6.799292762358E+00 -1.352038403630E-02 -4.217303456358E-01 -2.019587166326E-01 -6.493264057922E+01 -2.397253084689E-01 -2.521940672570E-01 3.111733487332E+01 5.770651892563E+01 -2.903342526724E-01 -6.130181041856E+00 2.820289926095E+03
 -3.688832821969E-02 2.981677176401E-01 4.981303720035E+00 -1.158451299487E+01 1.143444357339E+01 -8.298040771741E+01 4.451841424432E-02 -4.756472183776E-02 3.958126077485E-01 -3.722571199181E-03 2.688400704200E-01 4.635517572029E+00 6.022234564201E-02 -1.483714277022E-03 -2.214435345003E-01 -5.340116117246E-01 8.853097033110E-02 9.055711844697E+00 -1.797942964293E-01 -2.538300360647E-01 1.349952022366E-01 4.764171406689E-01 -6.822802159747E-01 1.007548755986E+01 -2.462658679479E-02 -3.403440712179E-03 -6.950990567527E-02 -1.084454721157E-01 8.769238763687E-02 -7.677630031732E-01 -4.460161674162E-02 2.843433080311E-01 4.241385573295E+00 -3.077100302241E-02 4.222781884538E-01 5.133869571589E+00 -7.372814460875E-02 2.055646745137E-01 -9.162338659262E+00 1.274442381209E+00 7.057571752220E+00 -8.103587728291E+01 1.444468790862E-01 -3.710989595264E-01 5.588447078675E-01 9.739625097377E-01 -2.370304033182E-01 8.068236687864E+00 -7.010476923158E-01 -7.328435317044E-01 9.591854533200E+00 1.097751033734E+01 -4.173556574428E+01 1.878097724802E+02