#BIOSYM hessian 1
@Type: Hessian Update
@Units
 distance: 	A
 energy: 	Kcal/Mol
#header
@natom 67

#label
C1      C2      C3      C4      C5      C6      C7      C8      C9      C10     C11     C12     C13     C14     C15     C16     C17     C18     C19     C20     C21     C22     C23     H24     C25     C26     C27     C28     C29     C30     C31     C32     C33     C34     C35     C36     C37     C38     C39     C40     C41     C42     C43     C44     C45     C46     C47     C48     C49     H50     H51     H52     H53     H54     H55     H56     H57     H58     H59     H60     H61     H62     H63     H64     H65     H66     H67

#element
C  C  C  C  C  C  C  C  C  C  C  C  C  C  C  C  C  C  C  C  C  C  C  H  C  C  C  C  C  C  C  C  C  C  C  C  C  C  C  C  C  C  C  C  C  C  C  C  C  H  H  H  H  H  H  H  H  H  H  H  H  H  H  H  H  H  H 

#matrix
201
 2.779612533575E+03
 1.411748935243E+01 2.861263017846E+03
 1.558406344056E+02 -9.532932628455E+01 1.085459989184E+03
 3.076557544811E+01 7.986504502033E+01 4.915167146804E+01 2.780227125484E+03
 -2.349208036071E+01 2.376841460700E+01 4.203225660925E+01 -1.884918097019E+01 2.726267743752E+03
 1.091496480386E+01 9.136504830023E+00 1.013399079559E+01 1.199739221327E+02 -1.581043010496E+02 2.155421129978E+02
 -1.493252334332E+01 4.617324085471E+01 -1.106198268177E+01 -3.719154790985E+00 -1.194237496919E+01 1.468484546587E+00 2.762478532514E+03
 -1.286454763812E+01 4.202027446566E+01 -7.497250571775E+01 1.346109865173E+01 2.619602421975E+01 -4.432415479438E+00 -2.866376945291E+01 2.801484385263E+03
 6.099082591602E+00 -1.520584703021E+01 1.273099503063E+01 5.531955433300E-01 7.667531753762E+00 4.951082535173E+00 -2.614906495303E+02 -6.248035283400E+01 2.395818788387E+02
 6.757557719980E+01 -9.196478519857E+01 -8.302462329396E+01 -7.272666214609E+00 5.070296230553E+01 -7.635887445964E+00 4.797561313636E+01 5.158953279163E+01 -1.328276995851E+01 2.762090865519E+03
 -2.561718043865E+01 3.396876116095E+01 1.070840128671E+02 -4.869211814814E+01 2.430711012740E+01 5.620886432515E+00 -1.460371759909E+01 3.617840795733E+01 4.270337252953E-01 -1.641397015957E+01 2.769540444482E+03
 -4.444527883407E+00 8.872976758010E+00 4.924820345760E+00 6.019781240648E+00 4.777453569617E+00 1.361656100631E+01 -6.896480188087E+00 -1.231126596703E+01 1.924195196862E+01 -1.813318725572E+02 -1.675836042528E+02 2.312359937458E+02
 6.655055885830E+00 -5.914821590324E+00 -2.939513933637E+01 4.761722244405E+00 5.814176182612E+00 -1.331131183682E+00 4.317365849513E+01 -8.085302316563E+01 1.874394494560E+00 -2.824769414050E+01 4.732355396673E+01 3.407767298971E+00 2.621447020288E+03
 4.278837052745E+00 -3.697755930643E+00 -1.350830968951E+01 1.589795319178E+00 2.907656885184E+00 3.221887240360E-02 7.326775562221E-01 -3.995914791355E+00 1.991996602601E+00 -3.834425618903E+01 6.727655068739E+01 1.832817817336E+00 -2.260889613880E+02 2.897242805686E+03
 -2.281803955048E+00 1.758657297722E+00 5.368422074325E+00 5.458606487756E-01 -1.864190835750E+00 -1.197878778045E-01 -4.825640078814E+00 8.733079388382E+00 8.990057036869E+00 5.436764611242E+00 -7.200346468180E+00 9.527183562014E+00 -1.795946372786E+02 -6.939753203968E+01 1.714923218323E+02
 -1.187957763025E+03 4.787152549102E+02 -2.827127569522E+02 -4.540138880886E+02 -5.694033569183E+01 -4.278596772289E+01 -2.537613925205E+01 2.258196577840E+01 7.969277243193E+00 1.104890550721E+00 -3.531422362202E+01 8.193244769972E+00 -5.386734257178E+00 2.123804725510E+00 -8.467729813262E+00 2.566811933461E+03
 4.436592663154E+02 -6.776552455205E+02 1.833994967008E+02 -2.818740308743E+01 -1.411534557523E+03 6.981542777738E+01 1.140213051272E+01 -8.399443361294E+00 -4.530712812501E+00 7.469527451184E+00 8.692004294330E+00 1.104492408527E-01 5.059012811187E+00 1.375632095503E+00 2.965363327679E+00 8.997348121619E+01 2.677630732365E+03
 -2.273440336687E+02 1.408676718192E+02 -1.699404290839E+02 -3.329406798039E+01 5.804948442642E+01 -1.001564292086E+02 -1.704636748711E+01 8.144612844139E+00 2.054827516561E+00 8.873473036607E+00 -2.441371457719E+01 -9.729952933442E+00 -1.154207977185E+00 1.961703875478E+00 -2.224799658830E+00 3.506697908579E+02 -1.991469891864E+02 3.575038780222E+02
 -1.062484626636E+03 -4.588472878472E+02 1.625063319905E+02 -4.099784184640E+00 4.371712712667E+01 -6.452275115115E+00 -1.224256742567E+03 4.134004216276E+02 1.090474336521E+02 -5.081333924274E+02 5.187543183533E+01 4.714595616255E+01 -2.997381585671E-01 -4.657001003011E+00 8.485772461113E+00 1.344787911655E+02 -9.013521187756E+01 6.626993543467E+01 2.552548135142E+03
 -3.818620152662E+02 -6.638448594966E+02 6.794686282467E+01 -1.119197194535E+00 2.079699142928E+01 -5.237631772079E-01 4.661122495048E+02 -7.872278225527E+02 -7.080051257329E+00 -1.268393963427E+01 -1.477525540821E+03 8.017823972584E+01 -9.720748511569E-01 -4.046152623201E+00 4.756501312734E+00 1.030225663382E+02 1.326229769213E+01 2.002001533128E+01 -1.332830221709E+02 2.744840425368E+03
 2.008794676159E+02 1.365266839114E+02 -1.415369411979E+02 -5.653476355007E+00 -2.141653261575E+01 -1.164753933336E+01 1.039730562607E+02 2.217696541970E-03 -1.158293981660E+02 5.420143429769E+01 6.876508131720E+01 -1.116587131628E+02 -4.034346957983E+00 -1.747840463397E+00 -9.429398312261E+00 -6.097813468837E+01 1.644616729101E+01 -1.549603083936E+01 -3.760288973698E+02 -1.950179566440E+02 3.752237288959E+02
 -1.568134489783E+01 7.171104997565E+00 1.617008936749E+01 -1.222933223098E+03 -4.226949820195E+02 -2.573330969633E+00 1.100914517838E+00 3.665874891829E+00 4.429857725240E+00 -1.222154565413E+03 4.410526477048E+02 3.062599600647E+01 8.761778912572E-02 1.094114094700E+00 -1.248065583979E+00 2.219402083674E+01 7.849822679167E+00 -4.953607492771E+00 6.892834885630E+01 7.889097258145E+00 -5.895121988475E+00 2.807746239525E+03
 4.317795034037E+01 -4.154946659917E+01 -1.374868162191E+02 -4.064364219476E+02 -6.635486910826E+02 5.427719825964E+00 1.163713905508E+01 -3.824496915515E+01 -5.062511349449E+00 4.138716069439E+02 -6.800220422571E+02 -3.258400744458E+00 -9.877351242144E+00 -5.430437591722E+00 2.539663243060E+00 -2.953388993190E+01 -6.489431665609E+00 2.672686005857E+01 7.168719982925E+00 -3.317979916850E+01 2.736970626153E+01 4.768115491626E+00 2.733271335015E+03
 -5.703052277061E-01 -2.295696990080E+00 -6.230185005158E+00 2.528216327894E+00 2.588697080479E+01 -8.133825114096E+01 1.078356137116E+00 -5.197676805408E-01 8.789566733829E+00 2.403261944732E+01 1.801688439818E+01 -8.090888207804E+01 -5.397313567219E-01 6.390239621040E-01 4.469179154327E+00 1.642509802487E+00 2.512231139831E+00 7.037102138520E+00 -3.830309880787E+00 2.546625631388E+00 5.924773011362E+00 -2.974206025055E+01 -1.038250830959E+02 2.026140730798E+02
 -2.684503059269E+01 1.800804054296E+01 7.114325058542E+01 -1.918110020837E+00 -6.180855836262E+00 3.177150929452E+00 -1.183219758633E+03 -3.908042526945E+02 1.250459287059E+02 1.037200944865E+01 -1.115708209699E+01 1.564068130198E+00 -5.169130528850E+02 1.017975465726E+01 3.596051293146E+01 -2.676464888273E+01 3.385387998190E+00 -5.270016321714E+00 2.324885045497E+01 -1.498067021184E+01 -4.611011923005E+00 -8.706821000816E+00 2.046251984438E+01 8.076832180564E-01 2.732650446219E+03
 -2.863847702966E+00 5.378547389631E+00 1.722125312747E+01 -5.233739785797E+00 -5.002060195297E+00 6.073133527823E-01 -4.130106017208E+02 -6.904778942837E+02 5.545076105049E+01 6.600304668425E+00 -8.602203804883E+00 -4.725019048767E+00 1.199574819388E+01 -1.633767193249E+03 4.505444820251E+01 6.100031759660E+00 -5.589992457927E+00 9.864205659633E-01 3.266967530113E+01 6.009534375965E+01 1.190996572712E+00 6.431698843997E-01 8.548646085957E+00 4.784009704413E-01 -3.966201208898E+01 2.951474311390E+03
 6.074630026702E+00 -3.233347006806E+00 -4.269392513072E+00 -1.322317719092E+00 4.796830074939E-01 -2.266737722610E+00 1.252353570811E+02 5.585999511835E+01 -9.861895931109E+01 -1.141652096281E-01 1.033180141854E+00 -1.242178181448E+01 3.479044979185E+01 4.614902454093E+01 -8.231786061583E+01 1.026650930809E+01 -1.712250115043E+00 3.154685431604E+00 -1.261502907569E+01 -2.520438871181E+00 1.312686320964E+01 2.455340504921E+00 -2.821807852728E+00 -5.286335480066E-01 -2.290359411800E+02 -8.939852904993E+01 2.062375349761E+02
 -1.245329165161E+01 1.104558193334E+01 5.790147821427E+01 -8.580670503680E+00 -8.499702072725E+00 1.521346509338E+00 -1.333893325297E+00 1.289935348618E+01 -3.999252462720E+00 -1.171389961162E+03 -4.291669749841E+02 1.089347748685E+02 -1.325601591948E+03 4.972309396722E+02 7.581445582943E+01 7.249734455418E+00 -8.525113403810E+00 -2.251143223315E+00 4.251368906477E+01 4.805910978709E+00 -2.433153014813E-01 -2.062780624529E+01 -1.593116231525E+01 2.540226838697E+00 4.392387942742E+01 -4.016916785903E+00 -3.055804798827E+00 2.854654427336E+03
 -5.926539769601E+00 1.578697214106E+00 1.713510456064E+00 3.461901949089E+00 3.417210588406E+00 1.936762482304E-01 2.768430463601E+00 -2.604805982714E+00 1.177607298371E-01 -4.059287445454E+02 -6.964518298724E+02 6.984306712279E+01 4.921077015098E+02 -8.222276139839E+02 -1.096729373489E+01 -1.327686726614E+01 3.885412409326E+00 -1.701143305550E+00 -5.298818258460E+01 7.673434671460E+00 2.215401892655E+00 2.975425052936E+01 5.715006620636E+01 -1.182157677508E+01 7.456296993352E+01 2.442945756094E+00 -4.606638650840E+00 -1.022784965197E+02 2.839169727811E+03
 2.131683633571E+00 -9.171642890010E-01 2.429323514416E+00 4.199516685074E-02 1.138499344655E+00 2.723887993851E+00 6.390988466490E-01 -4.686605153608E-01 -1.309665933998E+01 1.081590173563E+02 7.071648283872E+01 -9.813275338989E+01 7.650891931572E+01 -1.257714414362E+01 -8.328474746382E+01 5.951759927703E+00 -2.156621823380E-01 2.196393447329E+00 -3.956435001262E+00 -3.679632460423E+00 1.266064065345E+01 4.298101307399E-01 -3.677073888701E+00 5.499134837904E+00 -4.818615041496E+00 1.359871259446E+00 1.183332794759E+01 -2.103373799638E+02 -9.054049589106E+01 2.060949466879E+02
 3.222966748941E+00 -1.885156753562E+00 -1.431102625512E+01 2.015628614731E+00 2.688977572250E+00 2.971280941433E-01 1.060397633844E+00 -3.032812670146E+00 -2.986718006260E-01 -2.419425639652E+00 3.917895435714E+00 1.058587856906E-01 -1.024794326660E+00 -2.649431131592E-01 -1.122546364755E-01 -2.126113758378E+00 1.146245654525E+00 -7.208616180149E-01 5.100580504333E-01 -5.845584570987E-02 1.158583539390E+00 -3.115850852233E-01 -3.644444679145E+00 9.964843628153E-02 7.047708429715E-02 1.089138679483E+00 3.907696342643E-01 1.756651987712E+00 -9.404694352292E-01 4.004412710320E-01 2.804392194203E+03
 1.828909513520E+00 -1.273040395975E+00 -1.326930965622E+00 2.253835103383E+00 2.053732142191E+00 1.602007688116E+00 7.903001994341E-01 -2.365442773265E+00 -7.509326556284E-01 -1.967211477270E+00 2.915660713563E+00 -4.214084020219E-01 -9.902467735385E-01 -2.153922249847E-01 -2.750643625539E-01 -4.074240366012E+00 1.990761550146E+00 -1.536297288388E-01 2.231904442860E+00 8.899363637858E-01 -1.017214707371E+00 -7.325573836359E-01 -2.365245312130E+00 -4.208349062587E-01 -9.109049990469E-01 1.012414129659E+00 4.850835174801E-01 1.414274082713E+00 -1.270131738711E+00 1.875155989893E-01 2.431179432259E+00 2.800450088481E+03
 2.288135793193E-01 -6.515794175378E-01 -2.758701721251E+00 9.565510530525E-02 1.433351766349E+00 1.068921925084E+00 1.036616541332E+00 -4.397591635668E-01 2.417053324420E+00 -3.865954554041E-01 6.676530268535E-01 1.918406160225E+00 -1.083481151102E-01 -1.113815524632E-01 -6.086918165968E-01 2.280631352752E+00 -1.201864156815E+00 4.559141688295E+00 -2.326416688188E+00 -1.404455811732E+00 -1.683647086040E+00 4.214397012646E-01 -9.707888667756E-01 1.002067671496E+00 -7.587587920146E-02 2.878691229057E-02 -2.009279093747E-01 1.906404149015E-01 -2.911180746699E-02 -6.078170826403E-01 9.478227725363E+01 -4.690208536344E+01 1.984870772062E+02
 -4.152084054711E+00 2.845483128107E+00 1.787032022270E+01 -1.818904113229E+00 -1.105132701319E+00 -1.650084513929E+00 3.567147434588E-01 2.095443995019E+00 -3.572219012563E-01 2.532272512982E+00 -2.297265363888E+00 -2.237223836930E-02 1.061849180850E+00 3.893362613418E-01 4.190725150464E-01 3.076129945774E+00 -3.819516204207E+00 1.260751557439E+00 7.880421217191E-01 3.653960365056E-01 1.267142513868E+00 -5.559227015116E-01 3.363074706361E+00 2.351034671392E-01 -1.663012457212E+00 -8.710914155551E-01 7.861413818241E-02 -1.853174143924E+00 1.615434875638E-02 -1.656447540772E-01 4.152647738730E+01 7.206786417047E+01 -5.816632222483E-01 2.776544982928E+03
 1.778048673601E-01 -8.584979474066E-01 -1.595182231864E+00 6.169352102422E-01 3.557008162342E+00 -8.834884538756E-03 2.508913712962E+00 -2.197332231155E+00 -2.283237776225E-01 -7.550081228986E-01 3.452993448768E+00 1.513366597037E-02 -2.079047953270E-01 7.254933833127E-02 -2.067310319999E-01 3.990147087536E+00 -2.708456818255E+00 2.410157939968E+00 -3.130864723163E+00 -2.095053574228E+00 1.735406440125E+00 -2.483446443545E-01 -2.551705675245E+00 -4.228105162946E-02 -1.022600407773E+00 2.849483643559E-01 4.029676197863E-01 2.556504514843E-01 -8.409858483048E-01 4.271230865766E-01 -9.666517222154E-01 -1.773192903590E+00 6.140033180450E-01 2.793136149230E+02 2.860853264834E+03
 -5.512809191772E-01 2.927223103280E-01 1.178966971183E+00 -1.021284217248E-01 6.167672555149E-01 3.835648626325E-01 2.203740151148E-01 5.363178808907E-02 3.623027793641E-01 2.818343581260E-02 6.351414470280E-02 1.554072890333E-01 1.310509067096E-01 2.155518809666E-01 -2.197105873671E-01 1.705040866796E+00 -8.806065793867E-01 1.319752525349E-01 -9.171624343574E-01 -6.851304407003E-01 -3.208711588441E-01 9.677697465461E-02 -1.615738745471E-01 -7.045818668936E-01 -1.456924515747E-01 -2.521057964212E-01 -1.488374258202E-01 -8.091907501655E-02 3.298329525203E-02 8.214006922267E-01 1.022242744747E+00 2.719908564176E+00 1.090875646878E+01 8.714354797174E+01 -3.834425660316E+01 1.532988426707E+02
 4.446024197374E+00 -5.894451909798E+01 -2.781398068309E+01 4.353817867644E+01 1.746397582657E+01 5.591708885326E+00 7.832587802663E+00 -1.876235733858E+01 -3.631256037427E+00 -1.122458070200E+01 2.247686951376E+01 -3.840502958584E+00 -2.743184004675E+00 -2.663088364553E+00 2.418954921666E+00 -1.174441143005E+03 -4.623073512719E+02 -7.603682055948E+01 -6.190464979947E+01 -2.829576764339E+01 2.472059515715E+01 6.757081064202E+00 -2.671488554369E+01 1.343158086534E-01 1.261598629205E+01 9.904772970442E-01 -3.499834850528E+00 3.706508350381E+00 3.113034236103E+00 -1.786972334571E+00 -2.024478934611E+01 3.493575354806E+01 -3.749608838106E+00 1.044768178755E-01 -2.225581956449E+00 -3.852830967851E-01 2.724598613450E+03
 6.663970433081E+01 4.433239039090E+01 -5.376213592118E+01 -5.731761894013E+01 2.734496853590E+01 -1.018637976747E+01 1.189058832086E+01 -2.637888516334E+01 -3.713411193669E+00 -1.814439033369E+01 3.402816608363E+01 -4.655293503417E+00 -6.153400918557E+00 -3.117171510891E+00 1.076243107538E+00 -4.143696621357E+02 -7.530903506027E+02 5.717900246544E-01 -3.984015711045E+01 -2.367943811908E+01 9.437007300618E+00 3.489693645649E+00 -3.513861297784E+01 -4.533165668759E-01 8.916492791400E+00 5.901938750696E+00 -6.919855403321E-01 1.059941681304E+01 -2.085922527326E+00 -7.580066034548E-01 -3.497183872679E+01 5.443914370410E+01 -5.120778744101E+00 1.758612063800E+00 -2.327873849874E+00 -2.058765791252E-04 2.785044111465E+00 2.796149806999E+03
 -5.037852452270E+00 -1.523105409484E+01 1.918681348289E+01 8.885575806625E+00 -2.311039954742E+00 1.233049506648E+01 8.689703330302E-01 -2.261118638027E+00 2.446187032554E+00 -1.098618649293E+00 4.749166770616E+00 2.453697874249E+00 -9.108537097071E-01 -9.258629381191E-01 1.076025042333E+00 -9.603680899549E+01 2.671608321396E+00 -1.052403189593E+02 -1.073112966387E-01 -4.656839127699E-01 1.913499596348E+00 -3.063833463852E+00 -2.195866311297E+00 7.091281769418E+00 2.275466323518E+00 1.389235502464E+00 -2.022270709277E+00 2.084020259294E+00 -8.482728010876E-01 -3.529876589565E+00 5.978592008956E-01 -1.531888537066E+00 8.950026238485E+00 6.761631206485E-01 -1.356655430284E-02 -6.527510393349E-01 2.014908004556E+02 -3.786879757304E+01 2.173599048448E+02
 -1.024424691789E+01 4.775143640747E+00 4.904993928017E+01 -2.554959574007E+01 -3.488084351195E+01 -3.241292416669E+00 5.116356769002E-01 6.451543930799E+00 -8.326237741935E-01 7.516485072909E+00 -7.431171207508E+00 1.035128264688E-02 3.350372725507E+00 1.037323797187E+00 1.078575255893E+00 1.701856148795E+01 -1.090402927655E+01 7.353822204477E+00 -5.657847664785E+00 -1.582632154583E+00 2.771586553886E+00 -1.475356594975E-01 9.045934632337E+00 1.701115655042E-01 -2.645399585331E+00 -3.216102505904E+00 -6.522328023909E-01 -5.808984984009E+00 1.433894664245E+00 -6.141100783125E-01 4.094585974845E+01 -6.808245835267E+01 2.023763974428E+00 -2.428986915599E+01 3.963402592873E+01 -2.259182904161E+00 3.879009931405E+01 7.194091779975E+01 -1.037932832289E+00 2.765465906986E+03
 -1.551474479764E-01 1.242126471822E+00 1.230345845930E+01 3.229231770208E+01 5.516581359984E+01 5.685736364339E-02 3.595493110956E-01 1.240312491035E+00 -3.744295971050E-02 1.473982749469E+00 -1.422141120181E+00 2.773093870572E-01 7.251823840696E-01 2.948715781866E-01 -6.772100442151E-02 1.342324490069E+00 -2.887813068773E+00 -3.441019635120E+00 -1.968869179874E+00 -3.156597057075E-01 7.559142704019E-01 3.285460699825E-01 1.391160061571E+00 1.036355830504E+00 -1.234341173274E-01 -6.586760938869E-01 1.671987666651E-01 -1.283850932881E+00 5.691952059944E-01 2.249730126229E-01 3.414058004659E-01 3.573972657147E-01 -4.033503262630E-01 -4.266777398977E+01 7.395430256433E+01 -2.768757339412E+00 -5.123192244634E-01 8.272490345232E-01 2.568309896087E+00 -3.895311811923E+01 2.754834510931E+03
 -2.176330010783E-01 -1.391319401616E-01 -6.791331631497E-01 -2.881183604138E+00 -3.512110060221E+00 1.025006883457E+01 1.528605213666E+00 -8.277374992674E-01 3.632765752194E+00 -6.928927831685E-01 6.428331921153E-01 2.887601200090E+00 -2.359076331339E-01 -1.349018988782E-01 -9.153707502679E-01 3.024580898584E+00 -2.377728188593E+00 -9.781008074818E+00 -2.903439890230E+00 -1.874229616926E+00 -3.172337443375E+00 8.121793163158E-01 -8.044932522620E-01 4.665364591042E+00 -4.145449044034E-01 1.252085806368E-01 -5.437009504226E-01 7.281904674796E-01 -1.845396181317E-02 7.866132932792E-04 1.390293551241E+00 -2.574125757532E+00 1.068953138308E+01 -1.522720306259E+00 2.279112100535E-01 1.295372248781E+01 1.315849212827E+00 5.485042473036E+00 8.770697518521E+00 9.558661771811E+01 -5.290630049509E+01 1.915769253738E+02
 9.112009975631E-01 -1.024197392277E+00 -1.173936963282E+01 1.368625019760E+00 4.694006450452E-01 1.273293464993E+00 -3.026948154446E-01 -9.156699405871E-01 3.606605028690E-01 -1.394967582905E+00 1.031464614333E+00 1.559629251902E-01 -6.748813250433E-01 -1.092084848488E-01 -3.977006945362E-01 -4.494152652305E+00 3.534769087146E+00 -8.025039315840E-01 2.734256730768E+00 1.080938358772E+00 -1.125936032485E+00 -1.618717043373E-01 -1.297093135639E+00 -4.520523606469E-01 9.470919149161E-02 6.150103899154E-01 1.275551629630E-01 1.192760202232E+00 -4.668776961566E-01 3.752603764786E-01 -1.234536141018E+03 4.321714271014E+02 -4.695949174780E+01 -5.046623104765E+02 -1.493286177837E+01 -1.372403765663E+01 8.690472965795E-01 -8.787728560092E-01 -1.522738833856E+00 8.734201984997E-01 2.261924072334E-01 1.351424427245E+00 2.837893458281E+03
 -2.103523145402E-01 1.323560141755E+00 -3.498097996631E+00 -9.924007665833E-01 -2.762983024762E+00 -9.534823018077E-01 -1.764460534797E+00 2.102426372268E+00 1.073783451538E+00 9.169207926396E-01 -3.017956524669E+00 5.353265684832E-01 3.778838468184E-01 1.938367224449E-02 -1.173886791452E-02 -2.068965140157E+00 1.009487676710E+00 -7.372974332858E-01 1.336839454090E+00 7.160483105123E-01 -9.133835947955E-01 4.903680096150E-01 2.097667139395E+00 4.502948021089E-01 1.048235696217E+00 -4.616878131791E-01 -3.166806626315E-01 -5.124390389199E-01 9.787759437323E-01 -3.144750172374E-01 4.349287486671E+02 -7.287215952671E+02 2.628876488462E+01 -2.490632661401E+01 -1.540718087119E+03 2.588412153890E+01 1.042144038920E+00 2.269789916674E+00 2.833159318623E-01 -1.798029051616E-01 -1.660718303983E-01 -3.070188323442E-01 2.984405118155E+01 2.892660455112E+03
 4.236535194388E-02 1.233960074087E-01 1.583308926530E+00 1.017166434980E-01 -1.317747715814E+00 -6.017118639716E-01 -5.019574285359E-01 3.465202499509E-01 -7.423912525550E-01 3.070720679551E-01 -6.352527401230E-01 -3.330187635555E-01 -7.826196975217E-02 -2.434545493172E-01 3.651756553581E-01 -2.982987596070E+00 1.198513236246E+00 -5.859612199967E-01 2.286342756877E+00 1.508451130890E+00 2.039123307859E-01 -3.548975358478E-01 9.588933761594E-01 8.646454268406E-01 -1.384372081272E-01 2.809897266179E-01 2.755926578496E-01 -8.492545012406E-02 -1.183081731243E-01 -1.092083666800E+00 -4.614299264996E+01 2.564958618236E+01 -8.726489232074E+01 -1.370278079448E+01 2.663808556632E+01 -7.829836890821E+01 7.612404602399E-01 7.329162086911E-01 5.365311122040E+00 7.768609274191E-01 -1.496472551260E-01 -1.143741918411E+01 8.558291821550E+01 -4.930793346950E+01 1.885463967641E+02
 6.620462021469E-01 8.064448729593E-02 1.176884121115E+01 -2.293143610371E+00 -3.822760916556E+00 5.982774817816E-01 -1.908660168269E+00 3.300094120420E+00 -3.433622642355E-01 2.299579955856E+00 -4.230738902856E+00 -1.412277256595E+00 1.031982431859E+00 1.394558589212E-01 1.208148533035E-01 -1.892197560921E+01 3.713875134737E+01 -5.288917776646E+00 -2.649242329167E+00 -7.987552954376E-02 -4.660683744957E+00 1.279231465854E+00 2.987269398170E+00 -8.153339581292E-01 1.946188903294E+00 -1.057402699279E+00 -5.376435728745E-01 -1.473183627549E+00 1.868176054384E+00 -7.033332337991E-01 -1.216807654776E+03 -4.266723375737E+02 -3.525580011161E+01 -1.301958454624E-01 5.846369853212E-01 7.522435418249E-02 -1.167443394930E+03 4.240688244077E+02 -8.981580733010E+01 -4.718375901814E+02 -8.155173128850E+00 -1.786800450939E+01 -1.947536590029E+01 -3.481105824977E+01 -2.934542525052E-01 2.742079666499E+03
 -5.535894488889E+00 3.608992986858E+00 -9.188307539915E-01 -3.695935678154E+00 -3.431322705781E+00 -4.517670674832E+00 -9.072335878603E-01 4.141044348111E+00 8.189191251246E-01 3.551281318779E+00 -4.716900093323E+00 6.480322227370E-01 1.553212589927E+00 5.194698392483E-01 3.048211382053E-01 -3.122219354830E+01 5.708042992510E+01 2.287121834348E+00 1.677261385548E+00 3.511558757088E-01 5.323739557125E-02 1.573089177163E-01 4.914267181615E+00 4.245974697722E-01 -3.563894644973E-01 -1.347510165922E+00 -2.442006596038E-01 -2.218118535418E+00 1.050971453766E+00 -1.847059793754E-01 -4.302325811920E+02 -7.158808856284E+02 2.922098934763E-01 -6.109543480197E-01 3.043639679971E-01 -4.037056036300E-01 4.241234876235E+02 -7.064898312695E+02 4.177389758665E+01 -2.231678532032E-01 -1.497051232572E+03 2.313780622903E+01 3.475890129818E+01 5.910286693381E+01 6.262515507083E-01 7.042558552389E+00 2.805394756663E+03
 -1.286909342501E+00 9.995229736117E-01 8.760342353828E+00 -2.551709718858E+00 2.975499663412E+00 -9.333135671459E+00 9.866457961621E-01 3.535831383743E-01 -1.947923998790E+00 6.458804296355E-01 -1.983381940348E-01 -2.320653170102E+00 2.878441157200E-01 9.039183478119E-01 -8.749729634197E-01 4.902447078248E+00 2.822988821253E+00 1.016214807389E+01 -2.647181922278E+00 -8.428337382631E-01 -1.196953413424E-02 7.430900605716E-01 -4.206153931386E-01 -3.851846345752E+00 -7.652077666196E-01 -5.914653444615E-01 8.376879597646E-01 -7.906278859491E-01 1.614374072778E-01 4.519537328248E+00 -3.947066279895E+01 -3.921588853326E+00 -8.401026101540E+01 2.089775792719E+00 -3.137729747997E-01 -8.900924337758E+00 -8.716286660897E+01 3.906319202724E+01 -9.070670746355E+01 -1.762235572200E+01 2.982746047505E+01 -8.219938932197E+01 -1.025755151370E+00 4.415555979837E-01 7.602989434738E+00 1.381223961423E+02 -6.664642031001E+01 2.056969163969E+02
 6.789525790515E+00 -3.181446708821E+00 -1.664598954427E+01 8.385321920166E-01 -2.747158885661E+00 1.261102286122E+00 -3.701475066861E+00 -4.015794019267E-01 2.684475178849E-01 -2.424861105471E+00 -9.005017715027E-01 -3.073006003155E-01 -8.541714620685E-01 -7.399279099636E-01 3.990923685503E-01 -4.209409196995E+00 5.570930639420E+00 -4.675837256252E+00 -1.823713827823E+00 3.963896193337E-02 -2.732611583822E+00 1.802803531222E+00 -2.105544711975E+00 -1.183095350880E-01 5.135064437218E+00 5.099115217270E-01 -1.366795237835E+00 2.037010730074E+00 1.854183414284E+00 -6.234405739390E-01 1.162983870664E-01 1.645241254759E-01 6.641133558825E-01 -1.500118467287E+03 -5.290522604181E+02 -4.167742942767E+01 9.718449680607E-01 4.991005091515E-01 2.401138742446E-01 -1.275371690360E+03 4.339189648920E+02 -5.041429783800E+01 4.851188664891E+01 -1.790562983868E+00 1.482371586877E+00 3.784664911125E+01 3.223421739363E-02 -1.240902283913E+00 3.066199910612E+03
 -1.510003950788E+00 3.085943856212E-01 1.268640635491E+00 8.695464874735E-01 1.520065120104E+00 1.630248983872E+00 1.036932525644E+00 -6.591484800324E-01 8.704313666849E-02 -3.943931623830E-01 1.263524488621E+00 3.363118777411E-01 -2.797991092896E-01 2.216277170692E-01 -4.476763534684E-01 -3.245958448274E+00 1.698544095714E+00 -1.472378519911E+00 4.029268848933E+00 1.638771538321E+00 -1.730478864662E+00 -8.819004224527E-01 -3.128964606787E-01 -6.468705982581E-01 -1.901917579503E+00 4.282895144030E-01 4.598681572581E-01 5.416745545033E-01 -1.234113467500E+00 7.260304143813E-01 -4.553416730886E-01 -6.135194303903E-01 -1.553376096659E-01 -5.397867856564E+02 -8.715202146673E+02 -4.973890751891E+00 6.363292425886E-01 -8.417971106731E-01 -6.377699364030E-01 4.190054107622E+02 -7.207330925572E+02 2.735591062246E+01 -8.568330975144E+01 2.374241632153E+00 -3.524430050132E+00 7.248004833453E+01 2.837829715042E-01 2.076257067829E+00 9.360635116135E+01 2.539174350910E+03
 1.503866118561E+00 -1.054260027829E+00 -3.317832107375E+00 -2.233942885100E-01 -7.724315293991E-01 4.050439777620E+00 1.196028592389E-01 -7.254199511363E-02 6.094019767298E-01 4.495476312073E-02 -8.390155873963E-02 6.835361071642E-01 -1.423528424848E-01 -4.947107157873E-01 7.545632419535E-02 -3.930075671587E-01 3.166853454208E-01 4.948671604847E-01 -1.473783833196E+00 -2.200015914622E-01 7.933442511760E-02 1.712928848644E-01 2.267026852525E-02 2.276209766149E+00 5.014930304172E-01 2.648128369359E-01 2.286774073496E-01 -1.951057968711E-01 2.171283630666E-01 -2.282266682709E+00 2.140104851869E-01 -9.974757695743E-02 -1.017843123868E+01 -4.163623291169E+01 -5.502227787075E+00 -7.260667427465E+01 -2.947032121129E-01 9.658789646466E-02 6.110875599390E+00 -4.997638164632E+01 2.709961023189E+01 -7.912510687358E+01 2.627360326168E+00 2.950783615036E-01 1.233061899770E+01 1.684977718399E-01 2.076166506719E-01 6.257040969590E+00 1.024441569375E+02 -3.769608229479E+01 1.572120282956E+02
 1.339383635966E+01 -6.642415381446E+00 -4.766011581690E+01 -1.209287805059E+03 4.508618405843E+02 -8.126690322716E+01 -1.521596905170E+00 -7.303948267396E+00 7.367870007416E-01 -8.677107447091E+00 7.622560171624E+00 1.077816372038E+00 -3.694883145168E+00 -1.324437300585E+00 -9.172499753216E-01 2.564017331374E+01 8.008093409399E+00 -5.231266066422E+00 1.506425651997E+00 4.052706145213E-01 -6.913868897105E-01 -1.944823500561E+01 2.562306836329E+01 -2.140485343328E+00 4.417577086268E+00 3.140763547666E+00 1.047636472274E-01 6.126526583042E+00 -7.708871311230E-01 3.955405363371E-01 -1.304865924707E+00 -9.353371455024E-01 -2.138531173873E-01 1.699424725973E+00 4.082879902720E-01 2.252686821011E-01 1.058020433616E+00 -6.058979836993E+00 3.810347404263E+00 -1.132721943139E+03 -3.880153424325E+02 -3.178733066959E+01 -1.027651630005E+00 6.987596801213E-02 -5.068785844875E-01 3.712113230437E+01 1.168086592076E+00 2.943623529897E+00 -2.026136292200E+01 -3.270670581674E+01 -7.014384624744E-01 2.712919939157E+03
 4.172766975272E+00 -4.198949058075E+00 -3.221637982632E+01 4.612211373199E+02 -7.347367049308E+02 6.440657442252E+01 7.568937312679E-01 -6.396049265630E+00 -1.432931788003E+00 -5.888236383416E+00 7.980042364671E+00 6.773184814023E-02 -2.817107641129E+00 -8.396837580379E-01 -9.593568229466E-02 5.768031725823E+01 4.898358280611E+00 3.261491494262E+00 5.658755290397E+00 1.398584805197E+00 8.246172605040E-01 -3.370878202923E+01 5.112037151632E+01 -1.122359198317E+01 -1.690103261290E-01 2.827002180163E+00 6.624695604771E-01 4.564968314102E+00 -2.676395134462E+00 -1.339407421742E-02 -1.117859411889E+00 -1.304340331528E+00 -6.485479888871E-02 9.912331182262E-01 -4.975351237269E-01 2.881029350813E-01 1.655163913546E-01 -5.989218114943E+00 -4.243038836560E-01 -3.835903315626E+02 -6.706068799506E+02 4.093276124248E+00 -8.329907314751E-01 5.605126715684E-01 -1.051297416480E-01 -6.418453667033E+01 1.905656706831E+00 -4.072091132453E+00 3.129016745730E+01 5.680464550419E+01 -1.167470347384E-02 -5.717647197307E+00 2.815813673655E+03
 -2.154387117639E+00 3.326590759043E+00 1.950220283824E+01 -8.475026754644E+01 6.208959468798E+01 -9.345588124957E+01 -4.151784852406E+00 1.714807419206E+00 -1.054665381796E+01 1.055637827937E+00 -3.149622996412E+00 -4.129603503102E+00 3.234441351042E-01 9.566366714465E-01 2.114021475290E+00 -8.835128711005E+00 2.349622720377E+00 8.712437171438E+00 9.594731758072E+00 6.321007613462E+00 6.515953486722E+00 3.227926543791E-02 8.054922270600E-01 2.925496562524E+00 2.598337004129E-01 -1.914632893598E-01 7.280221356258E-01 -4.117886933269E-01 4.081565974498E-02 5.711204718802E+00 1.148000252538E+00 4.398219318452E-01 1.406524396302E+00 -5.609117653953E-01 5.596536863325E-01 6.264020328190E+00 1.080638373037E+00 1.509535508253E+00 -1.267892728965E+01 -3.085204110912E+01 -1.088557092535E+00 -8.509512902440E+01 2.631050742237E-01 -1.808786640423E+00 -8.589461632517E-01 1.639547581111E+00 2.080398353079E+00 1.392255730917E+01 -4.760635301501E-01 -1.106032292810E+00 5.941174309897E+00 1.309200845561E+02 -1.158955473879E+02 2.144315415885E+02