#BIOSYM hessian 1
@Type: Hessian Update
@Units
 distance: 	A
 energy: 	Kcal/Mol
#header
@natom 68

#label
C1      C2      C3      C4      C5      C6      C7      C8      C9      C10     C11     C12     C13     C14     C15     C16     C17     C18     C19     C20     C21     C22     C23     H24     C25     C26     C27     C28     C29     C30     C31     C32     C33     C34     C35     C36     C37     C38     C39     C40     C41     C42     C43     C44     C45     C46     C47     C48     C49     H50     H51     H52     H53     H54     H55     H56     H57     H58     H59     H60     H61     H62     H63     H64     H65     H66     H67     H68

#element
C  C  C  C  C  C  C  C  C  C  C  C  C  C  C  C  C  C  C  C  C  C  C  H  C  C  C  C  C  C  C  C  C  C  C  C  C  C  C  C  C  C  C  C  C  C  C  C  C  H  H  H  H  H  H  H  H  H  H  H  H  H  H  H  H  H  H  H 

#matrix
204
 2.780997530833E+03
 -2.509605363149E+01 2.819214790815E+03
 3.173349733546E+01 1.046649752600E+01 1.945545729989E+02
 3.813220358561E+01 6.850411487751E+01 2.473333931552E+00 2.779661554469E+03
 1.730691616684E-01 -1.374444127014E+00 -9.902573574526E-01 -2.390270475356E+01 2.762492991247E+03
 5.254662106225E-01 6.900758239104E-01 1.039397952553E+01 5.302256304359E+01 8.422882630163E+00 1.953480776015E+02
 -2.098420777019E+01 3.495012746773E+01 4.376542002807E-01 -7.363364453495E+00 -5.108938395111E-01 3.567576412221E-01 2.794462380880E+03
 -3.601312587254E+01 5.847584236709E+01 -1.268764675502E-02 -6.616076660307E+00 1.692472874060E+00 5.235384762747E-01 -3.728874024257E+01 2.821168680344E+03
 -7.689847431306E-01 1.343831982804E+00 5.700573895562E+00 -7.151072637202E+00 3.933543542442E+00 -5.849729107836E+00 2.186140257476E+01 2.823618069613E+01 2.108576633980E+02
 3.568542357807E+01 -6.801926865643E+01 9.206005863123E-01 -3.438020366603E+01 3.807742023725E+01 2.380484971455E+00 3.290160174199E+01 5.512998738198E+01 -3.835861918348E+00 2.767091771817E+03
 8.798737661192E-01 -3.689448869939E-01 -5.182656530890E-01 -3.150808350878E+01 5.731513235495E+01 -1.141136722671E+00 1.535953837597E-01 3.456025192588E+00 2.536073783442E+00 -2.390004094947E+01 2.824087013034E+03
 2.328072275000E-01 -6.590780036580E-01 8.671364548649E+00 -8.173878230280E-01 1.978964671878E+00 7.893252674021E+00 1.909949818490E-01 2.104991812846E+00 1.124265419552E+01 4.464434177523E+01 2.764417111793E+01 1.998718451819E+02
 1.544513901058E+00 1.051586664672E+00 -2.642597360437E-01 -1.710861425058E+00 -5.096348455110E-03 -7.795461199792E-01 4.294556861980E+01 -7.023953310835E+01 -1.633317633627E-01 -1.825382845154E+01 3.608823693723E+01 6.262769926304E-01 2.635472253645E+03
 6.708684942278E-01 7.513297963941E-01 -1.751177284484E-01 -2.090108780981E+00 1.725616214896E-01 -3.756937987623E-01 -2.718004571718E-01 2.096446993690E+00 -8.390160180419E-02 -3.562360672509E+01 6.297065540261E+01 9.084247668190E-01 -2.309824269308E+02 2.908593582367E+03
 -1.043539451542E+00 -8.221477312702E-01 -3.896771174304E+00 -2.463602961745E+00 1.508850152280E+00 -6.789623387818E+00 1.315363487421E-01 -5.636960274090E+00 2.939090251436E+01 -7.012476512871E+00 4.947917665681E+00 1.512792290220E+01 2.742307795057E+01 4.367157574540E+01 1.841935372951E+02
 -1.229510918686E+03 4.477673490710E+02 -1.356129605176E+01 -4.596188953017E+02 -7.718650576361E+00 -6.768980941721E+00 1.070287794640E+00 1.582723575993E+00 1.741728266931E+00 2.667881347265E+00 -1.011870195596E+00 1.612512127208E-01 -3.140386477455E-01 1.401322348178E-01 1.657872663031E+00 2.818412814133E+03
 4.425738605629E+02 -7.404212358969E+02 3.601187156412E+00 -6.199426537848E+00 -1.432133316620E+03 -4.648905230682E+00 5.331657096549E-01 1.911872607826E-01 -1.584856069887E+00 8.213783754052E-02 7.958121923836E-01 -2.671881712601E-01 -4.533588969411E-01 -3.481040915101E-01 2.961404622523E-01 -2.198831605934E+00 2.781225558764E+03
 -1.304768916542E+01 3.309612466707E+00 -8.423064112780E+01 -8.255749111450E+00 -4.536041401662E+00 -8.187168943542E+01 -2.276959179260E-01 -2.236095917158E-01 7.611964290687E+00 -8.267919555761E-01 3.852920222634E-01 -8.041694255963E+00 1.889329274523E-01 4.588457074891E-03 3.026417744119E+00 3.600717194863E+01 8.948865441974E+00 1.929840110285E+02
 -1.192854130616E+03 -4.119693232257E+02 -1.559987201176E+01 1.079584282873E+00 7.680001358955E-01 -1.129522211954E+00 -1.256334548266E+03 4.523632283792E+02 -3.796024847268E+00 -4.787614435313E+02 -7.407475318680E+00 -4.317581450283E+00 1.806560992110E-01 9.769784295425E-01 6.461111970462E-01 -1.899034483058E+01 -3.376063778193E+01 4.946106426642E-02 2.813012654866E+03
 -4.116935747770E+02 -7.016947760817E+02 -8.898375345364E+00 -3.012028583384E+00 1.755840097674E+00 5.045738621845E-01 4.535338785883E+02 -7.484334213863E+02 -4.085405945699E+00 -1.418691223565E+01 -1.510505622464E+03 -1.561441719390E+01 2.169487250369E-01 -1.113561177393E+00 2.333867417120E-01 3.497876405342E+01 5.795309614304E+01 4.124739284898E-01 -3.331985682204E+01 2.843876362003E+03
 -1.526132484878E+01 -8.786505416966E+00 -8.051963431635E+01 2.230446993960E+00 -7.355534836853E-01 -7.348768116678E+00 -5.817493154359E+00 -3.052151182464E+00 -8.873562115662E+01 -4.212196172896E+00 -1.676898525007E+01 -8.518919404279E+01 3.003793952293E-01 1.301657313992E-01 -1.513118891569E+01 -9.704656950936E-01 -7.842987492490E-02 7.794027137612E+00 2.480671820364E+01 2.732006182899E+01 1.968548717877E+02
 1.990150944496E+00 -6.201605233420E-01 -1.915080205892E+00 -1.204894292997E+03 -4.197352514412E+02 -2.703032747465E+01 9.407313001483E+00 1.384725460466E+01 6.886118674930E+00 -1.203777487791E+03 4.377713873673E+02 -1.616463351583E+01 -1.785218064126E+00 -8.645588726889E-02 5.507489270169E+00 3.525881436091E+01 -1.593306055564E-01 2.318940510404E+00 3.979279271651E+01 2.329309681642E+00 -1.612718453605E+00 2.771744536684E+03
 4.497878237586E-01 1.653932353340E+00 -8.231581209836E-02 -4.149826475572E+02 -7.119008991588E+02 -1.204884378944E+01 6.522315378131E+00 4.185634207956E+00 -2.824362551961E-02 4.451190577750E+02 -7.265138218773E+02 2.003832524707E+00 -2.260754468797E+00 -9.216761801450E-01 1.528184485243E+00 -6.713438571291E+01 -6.541051194221E-01 -1.192399639389E+00 6.817508886048E+01 -2.759844844353E+00 8.404834185811E-01 -9.894736229344E+00 2.799025862112E+03
 1.865188108061E-01 1.165566146016E-01 -1.047027649219E+01 -2.625262029845E+01 -9.918105299141E+00 -8.639236778748E+01 -4.038774619795E-01 -3.074361691678E-01 9.702623381016E+00 -1.783614080225E+01 2.803805184955E+00 -8.249824816630E+01 1.275423461549E-01 -1.558352760018E-01 1.198475684658E+01 1.020605346325E+00 -5.553466557661E-01 1.014292108475E+01 2.528735882796E+00 -2.939883598181E-01 7.506232947317E+00 4.853721590640E+01 1.997241294703E+01 1.965007090587E+02
 4.092394646877E+00 1.073547882841E+00 -2.968937696595E+00 2.490543521898E+01 1.590914210301E+00 -4.590291377422E+00 -1.174865127709E+03 -3.859964340096E+02 -2.147110596071E+00 3.343422946674E+01 -9.358060977830E-01 1.165973491800E+00 -5.245028225186E+02 1.630302577644E+01 4.524601453604E+00 -2.564720137647E+00 -2.651162191103E+00 2.369246037379E+00 -2.365677577241E+01 -3.257609162736E+01 -4.743216502135E+00 -3.234954464506E+01 -1.997450901526E+01 3.880223284919E+00 2.724401974516E+03
 -2.348102509968E+00 -1.413067504800E+00 2.938832352420E-01 -4.517114396769E+00 -1.774972859917E+00 1.563263426529E+00 -4.225848662325E+02 -7.291419978985E+02 -1.404544502259E+01 -8.191602900107E+00 -5.179809622687E-01 -1.901570460597E+00 1.943211710759E+01 -1.635693953916E+03 -3.167689804256E+01 1.201718053857E+00 9.276072688584E-01 -7.628206592487E-01 3.682079341673E+01 6.151138676112E+01 1.281664040725E+00 8.392739376005E+00 8.596535356287E+00 -8.042481566541E-01 -3.207496435385E+01 2.872931868516E+03
 4.670137703433E-02 -1.632676731359E+00 4.382058159897E+00 5.055894167897E+00 -3.818153604072E+00 4.650877591652E+00 -1.500320237716E+01 -2.007787911604E+01 -9.313149713751E+01 4.630692699257E+00 -1.498760517732E+00 -1.157808712071E+01 -9.208574862485E+00 -2.567031072331E+01 -9.762462115457E+01 -1.143149788923E+00 1.321570425808E+00 -1.811359366017E+00 -1.778582321857E+00 4.305889965579E+00 9.556909251481E+00 -4.163892688822E+00 1.480224776443E+00 -2.835629849494E+00 -7.632885932716E+00 3.596219794528E+01 2.649962360318E+02
 -4.408549244771E-01 -1.296239295376E+00 6.882625509898E-01 1.207138047109E+01 1.104106658255E-02 1.295075775040E+00 4.424982955215E+00 2.953737307796E+00 -1.396293201754E+00 -1.199596491534E+03 -4.079304600165E+02 -2.217805276358E+01 -1.326724470091E+03 5.006005422934E+02 -1.447662876220E+01 -1.907434623440E+00 3.293854877719E-01 -1.367308425549E-01 3.787264186995E+01 1.050238328871E+00 5.043551406895E-01 -2.173320636362E+01 -3.262155918634E+01 -1.413906383034E+00 2.966290653819E+01 1.982743862347E+00 6.750530557114E+00 2.801922349803E+03
 4.974976260650E+00 1.408979946351E+00 -2.697052199300E+00 2.453932992664E+01 2.490764078353E+00 -3.835796265502E+00 1.861785894731E+01 1.964016740124E+01 1.035147534720E+01 -3.661691370189E+02 -7.080722111266E+02 -1.507370763147E+01 4.946124630681E+02 -8.292783718151E+02 1.538698993351E+00 -3.588698836007E+00 -2.884178501708E+00 1.793710297384E+00 -7.494517031934E+01 1.645259079031E+00 -4.227082072982E+00 4.550827301674E+00 3.522718768780E+01 3.970278409730E+00 1.576363986068E+01 1.853823192092E+01 -7.078473918903E+00 -7.961427804613E+01 2.790337999655E+03
 -1.637968779313E+00 8.683564631832E-02 7.734738322469E+00 2.683524168747E+00 -3.142838902276E+00 1.036242270670E+01 1.615381047793E+00 2.221199202161E+00 -1.943084829303E+01 -2.841539550616E+01 -9.605111419341E+00 -9.007846596533E+01 -1.027578912717E+01 -1.098952685496E+01 -9.869429610980E+01 -2.956998569077E-01 2.239377578839E+00 -1.818171952705E+00 1.606927502448E+00 -1.313144911147E+00 1.254514626074E+01 3.794385344112E+00 5.868016340852E+00 4.909156122098E+00 -5.477329923611E+00 6.968742509519E+00 2.593114733184E+01 1.527009581503E+01 3.222834921025E+01 2.511571395801E+02
 -5.618761637028E-02 -2.565577045463E-01 2.454344016305E-01 -1.063639200317E-01 -7.944353082202E-01 3.755543836552E-01 -7.671244935713E-01 -2.114202712889E-01 -8.019088707438E-01 -2.070201315571E-02 -8.680513967149E-01 -4.187092762275E-01 1.897724453521E-01 7.370488017889E-02 -1.063551246474E+00 -1.442074054382E-01 3.128948738244E-01 -1.864931073085E-01 3.890158151511E-02 4.072893211027E-01 3.294754936293E-01 1.416000482039E-01 1.495709743035E+00 -3.141320589026E-01 1.730893669311E+00 -8.933923569531E-01 5.712412895595E-01 4.567562567651E-01 2.375420927896E+00 5.142131108225E-01 2.810479925353E+03
 2.194956972483E-01 1.326263003565E-02 -2.728347663441E-01 1.630616881270E-01 -6.447905792905E-01 -5.386691400355E-01 1.010721981602E-03 1.010923367330E+00 1.027059001189E+00 1.136823939986E+00 -7.713989472254E-01 4.358945119212E-02 -2.602648160621E-01 -8.266374639144E-02 5.509434142310E-01 -5.982904754367E-02 9.270527388640E-02 2.133334869435E-01 3.302282201662E-01 2.917040270487E-01 -2.661830928079E-01 -6.814433210388E-01 5.730866712028E-01 3.182380213616E-01 2.634233759032E-01 4.366419565498E-01 -2.427512141941E-01 6.698223522153E-01 7.139296620154E-02 -3.215361547967E-01 1.484156892077E+00 2.799248674723E+03
 -2.982434029417E-01 -9.139775912449E-02 -1.948587957329E-01 -6.740038044007E-01 5.947444153546E-01 -8.476146624757E-01 -1.094050165350E-01 -8.474196881100E-01 1.546411172335E+00 -8.437479906651E-01 6.125317188496E-01 4.205858279407E-01 4.582811594083E-01 2.086271799173E-01 3.981554204899E+00 2.625780116062E-01 -5.180729914678E-02 4.947701956324E+00 3.402819479307E-01 -3.877848753974E-02 -3.660219735026E-01 9.316741946160E-01 1.771071813135E-01 8.687586905179E-01 1.747876226571E+00 -1.226897577328E+00 -3.639431972185E+00 -6.436291522435E-01 9.949074127317E-01 -1.300702161833E+00 4.562550817740E+01 -6.433943845710E+00 1.952417958511E+02
 -2.023728861624E-01 -2.827641551909E-01 -3.233792598750E-01 -5.378276063528E-01 -6.809170249118E-02 -4.343052380446E-01 -7.948116353668E-01 -2.917358833508E-01 9.017102254261E-01 -5.435261123180E-01 -5.009843197354E-01 6.764474341794E-02 5.833189236807E-01 2.946962330766E-01 6.974947046844E-01 6.222932476912E-02 1.348872406115E-01 2.161058694890E-01 4.214379214031E-01 2.271830850406E-01 -2.592636625014E-01 7.932556146714E-01 1.473850637041E+00 4.250288129256E-01 3.023703119623E+00 -1.551869607801E+00 -9.202532873984E-01 -5.900444665668E-01 3.404249202573E+00 -1.092456594548E+00 4.090170645027E+01 7.155444746896E+01 3.336905955996E-01 2.779241726801E+03
 4.147895960727E-02 -2.019421934691E-02 -4.234874807543E-01 -1.637620552216E+00 -3.637552111156E-01 -8.011127124723E-01 -8.326015960113E-01 3.141886740834E-01 1.644832090236E+00 -2.669305133109E-01 -7.290828056892E-01 4.499681879322E-01 -1.604242412721E-01 -1.133642683928E-01 1.674294354269E+00 1.873564276584E-01 1.554390886751E-01 4.109678761835E-01 7.190960700608E-01 1.828153975605E-01 -4.585930063164E-01 1.039164844180E+00 1.508575323776E+00 6.567577608077E-01 3.697335152570E+00 -1.004716093365E+00 -1.319687031900E+00 9.208129118869E-01 3.470061045141E+00 -1.077618685508E+00 -1.285023301236E+00 -1.907942919244E+00 2.747416413213E-01 2.787468483155E+02 2.861963308723E+03
 -2.321663799723E-02 -6.967497722842E-02 7.687482251176E-01 1.072532380889E+00 -3.648262754639E-01 9.176204980562E-01 2.323541122180E-01 -3.848007690096E-01 -1.849529438331E+00 8.656723842247E-01 -2.511060948817E-01 -4.374704498662E-01 -2.247353180654E-01 -1.021025968310E-01 -3.211272608894E-02 -2.566918380787E-01 2.104095300506E-01 -4.482010980816E-01 -5.033784631448E-01 3.105659017745E-01 7.305571228512E-01 -1.068420037874E+00 -4.326443976100E-02 -5.261294682014E-01 -1.560392743707E+00 -1.589695083976E-02 -1.249062333607E+00 2.330163768706E-01 -1.684588068227E+00 1.256214321837E+00 5.072241063128E-01 1.115015739403E+00 1.111653185684E+01 4.958737101546E+01 -5.556158394771E+00 1.509691803298E+02
 -2.002732341755E+01 -3.415059316696E+01 -1.727886512929E-01 3.866050154328E+01 -9.518428289136E-03 5.394670151134E-01 -2.618130820213E-01 -1.504171731332E-02 -7.730185555475E-01 -8.367689107255E-01 1.455328658978E-01 -2.671324765361E-01 -2.724762713894E-01 -2.430107317662E-01 -8.151885740036E-01 -1.246239108916E+03 -4.337062564205E+02 -1.770188929017E+01 -8.744252259544E-02 -1.661571885109E-01 4.417289769067E-01 8.003643402531E-01 -1.216335680851E-02 -4.571945447889E-01 5.729789959700E-01 2.924074991391E-01 7.488653499144E-01 2.001797691719E+00 9.158843350069E-01 5.297989494712E-01 -1.910536486205E+01 3.410267124097E+01 -6.615596464424E-01 2.815598706139E-02 -1.457186273905E-01 4.070138704303E-02 2.777238517438E+03
 3.608813077384E+01 6.072374120927E+01 1.313754796043E-01 -6.843178152517E+01 -4.908056809954E-01 -1.893352638027E+00 -2.877419153436E-01 1.022289621428E+00 2.251599437444E+00 1.027675147303E+00 -1.043681243112E+00 4.671884168707E-01 -1.865584616760E-01 -3.900027567908E-02 2.297995726857E+00 -4.385231012618E+02 -7.242495641122E+02 -6.472740470227E+00 7.655117792024E-01 3.397887060541E-01 -6.226860887912E-01 -3.536783656350E-01 1.225124647028E+00 8.080770741796E-01 2.420924895447E+00 -2.427890926490E-01 -2.051008124030E+00 8.205383060297E-01 1.807829896351E+00 -1.485936299505E+00 -3.278257596585E+01 5.738599409137E+01 -4.457912344956E-03 -7.216853172614E-02 -4.866820469917E-02 -1.638211179606E-01 1.873389427130E+01 2.804347658146E+03
 -5.313137120935E-01 -3.112052553747E-01 1.000152080658E+01 4.471659962060E-01 3.508868149996E-01 8.529415739194E+00 9.142214475623E-02 -8.426879082395E-01 4.113402564166E-01 -1.795820145917E-01 1.697393871096E-01 -1.287225407649E-01 5.975210890156E-01 3.156512688773E-01 3.288566194827E+00 -1.718638492526E+01 -7.469151597597E+00 -8.317164508984E+01 -1.975267494102E-01 1.583314513418E-01 4.681637618550E+00 2.043580064020E-02 2.257840459317E-01 5.039338718257E+00 3.573376785268E-01 -1.123561600974E+00 -3.993535180065E+00 -1.043440893507E+00 5.565098909383E-02 -1.073374503175E+00 -4.384186275428E-01 6.306344696537E-01 9.517347271723E+00 -6.631926674773E-02 1.820416988301E-01 5.457579116619E-01 4.004857800413E+01 -8.858002581958E-01 1.926620243088E+02
 -4.093585006928E-01 -3.172222814226E-01 -4.344066661325E-01 -2.330703305891E+01 -3.276881578870E+01 -1.330805836658E+00 -3.746708704134E+00 -1.356692933235E+00 1.451228371339E+00 -3.012883055660E+00 -2.068977313904E+00 3.957968171125E-01 5.003404974710E-01 -1.288279180208E-02 2.102823215563E+00 2.040543990693E-01 -1.194105016213E-02 5.131818175107E-01 1.706965145828E+00 5.952430478920E-01 -4.554234010003E-01 4.693263838741E+00 5.914081590606E+00 7.691675053787E-01 1.372059234290E+01 -5.066867451827E+00 -1.710535657818E+00 1.968537567352E+00 1.410791626431E+01 -1.146986872310E+00 3.885999203742E+01 -6.920343085905E+01 9.255078068219E-01 -2.360017614685E+01 3.958704007556E+01 -9.767992545583E-01 3.891531365422E+01 6.660630835046E+01 6.506680700752E-01 2.767005249336E+03
 -1.399209292969E-01 -7.437142593024E-01 -1.510135069067E-01 3.459026968109E+01 5.453157336070E+01 5.766119366726E-01 -1.338349431408E+00 8.317760921712E-01 5.808849695091E-01 2.002232679598E+00 -2.462919991665E+00 -3.686510191066E-01 4.056178155062E-01 3.124719379246E-01 -1.155220428318E+00 -5.135967057030E-01 1.180880931448E+00 1.383542210480E-01 4.498553093289E-01 1.272669228419E+00 3.912684961585E-02 -1.279573975324E+00 3.623313031561E+00 2.037060898951E-01 2.940892332929E+00 -1.734294097097E+00 -8.352242108969E-02 7.388516756596E-01 4.018087592051E+00 -1.021705963131E-01 -5.333976306934E-01 -2.962436961331E-01 2.771442505025E-02 -4.271788301066E+01 7.328147278872E+01 -1.177620846267E+00 4.316610870698E-01 -1.239251300568E+00 -3.559432427429E-01 -4.183667019827E+01 2.757740679224E+03
 -4.402256622809E-01 -1.510747952572E-01 -5.816260313958E-01 -1.024588499355E+00 2.477074508240E-01 7.049237951197E+00 -2.663543890656E-01 -7.699715254136E-01 2.144006369527E+00 -1.129762412045E+00 7.397924155914E-01 7.187159316260E-01 9.459894977223E-01 5.371312564046E-01 1.671398827232E+00 6.206034709002E-01 -1.946362110801E-01 -8.250749196989E+00 4.725105219626E-01 -2.222012345886E-01 -6.980800666200E-01 1.000230370522E+00 2.622036010035E-01 5.215830099605E+00 1.997656318277E+00 -1.326127276476E+00 -1.748921316181E+00 -1.083499437935E+00 1.607776484028E+00 -1.285228638509E+00 2.235878961458E-01 -7.685856229751E-01 9.736559603526E+00 -4.472982779148E-01 9.086248834540E-01 1.196221662298E+01 4.046770949272E-01 1.484960719829E+00 8.859783912398E+00 5.257385565667E+01 -3.601909370505E+00 1.864637998134E+02
 2.114544616756E-01 4.183726921281E-01 -1.504646063931E-01 -5.169215715246E-01 6.887905312591E-01 -3.850353761474E-01 9.206781158893E-01 4.962760061228E-01 7.226152648587E-01 6.153827986273E-02 9.506610655699E-01 4.778087052454E-01 -6.090471843696E-01 -3.131821875342E-01 1.268490823273E+00 2.442534501873E-01 -3.176705852940E-01 1.658916463653E-01 -2.277663853843E-02 -5.197411130834E-01 -2.790736852957E-01 -5.836387418203E-02 -1.891086900607E+00 2.494398566978E-01 -2.109521439190E+00 1.389506615513E+00 -4.817171345034E-01 2.184263974436E-01 -2.986606955700E+00 -1.837668214269E-01 -1.235007928618E+03 4.338384904979E+02 -2.074548679322E+01 -5.050235185415E+02 -1.589052895667E+01 -7.609142195555E+00 -2.935666668676E-01 3.747629292214E-01 1.459420749210E-01 9.733404965848E-01 4.649407903560E-01 5.288403298609E-01 2.841323386540E+03
 -1.098116628698E-01 1.133926761122E-01 4.904586706452E-01 7.642346414875E-01 6.919048106242E-01 1.003781056517E+00 4.600493531459E-01 -7.929991015271E-01 -1.992751571358E+00 -7.848687376297E-01 9.861119971074E-01 -4.004341934733E-01 -7.144698964631E-03 -4.278387962373E-02 -1.669063261209E+00 -9.494936969272E-02 -1.558763855145E-01 -5.153627659494E-01 -6.429004303160E-01 -3.782868781820E-01 5.441712208328E-01 -2.447719327639E-02 -1.435856953228E+00 -7.265752636646E-01 -2.337376818967E+00 7.359385949402E-01 1.572494435044E+00 -5.106174297541E-01 -2.148437372567E+00 1.028037781022E+00 4.360483943981E+02 -7.290345862975E+02 9.263658185710E+00 -2.599097001392E+01 -1.541447298505E+03 5.798450521418E+00 2.940132621108E-02 -1.341010818448E-01 -1.525861366000E-01 2.403046053090E-02 9.091420868290E-01 -4.403182813550E-01 2.833071177593E+01 2.892443323912E+03
 2.067458618854E-01 9.967338223114E-02 -3.180262685763E-01 -2.478834529465E-01 -1.664898036602E-01 -1.193998600274E-01 -1.756290000403E-02 9.033868467859E-01 2.009373897154E-01 4.154774912450E-01 -3.519540222705E-01 1.607455957304E-01 -6.907697137382E-02 1.102410517013E-02 -2.511044952107E+00 -7.282212796283E-02 -9.838259004925E-02 9.939476995938E-02 1.914827325357E-01 -1.109627600743E-01 -2.352328771934E-01 -1.406485946676E-01 1.489953743995E-02 -1.547728286755E-01 -6.446964479737E-02 4.160535710070E-01 2.239411639344E+00 1.330134168673E-01 2.494497670304E-01 4.441065281362E-01 -2.105611489888E+01 9.463127120551E+00 -8.590941021134E+01 -7.664765417344E+00 5.728936194952E+00 -7.756483137443E+01 -4.522993915795E-03 -1.206736126329E-01 3.717932768001E+00 1.928935978469E-01 -5.739850677937E-02 -1.028502903964E+01 4.539645497251E+01 -9.710271113388E+00 1.855783624688E+02
 -4.677653214843E-02 1.576385904426E-01 2.965364490189E-02 -6.797481709771E-01 9.656247016599E-02 3.474286302364E-01 3.466185380340E-01 -2.994403237861E-01 -3.561789889810E-01 -6.034498252263E-01 7.686350650406E-01 1.125695213137E-01 -3.077051491992E-01 -1.622400360678E-01 3.728759372991E-01 -1.918421874151E+01 3.465707173227E+01 -6.584875781052E-01 -1.916220646116E-02 -3.445371856909E-01 -2.751300338290E-02 1.218397186578E-01 -1.142483499184E+00 -1.857321624350E-01 -7.888308883490E-01 9.827865725168E-01 4.927299640949E-01 1.882828858622E-01 -1.574528785483E+00 4.332718924657E-01 -1.222009808761E+03 -4.246187213379E+02 -1.887779493923E+01 -7.190445059319E-02 -1.105021765091E-01 3.038593744934E-01 -1.175136094858E+03 4.229300383005E+02 -1.778629438568E+01 -4.674665885594E+02 -8.383197609141E+00 -7.104571496539E+00 -1.955882508856E+01 -3.412201677240E+01 -6.073690522719E-01 2.750272779532E+03
 -1.907756051105E-01 8.326258972832E-02 4.952104058707E-01 9.692240351411E-02 1.565892030348E+00 1.166767812818E+00 1.084758163867E+00 -1.347056891819E+00 -2.356308940861E+00 -1.606378363495E+00 2.021683676016E+00 -4.215482029510E-01 2.479071525765E-01 1.305735681862E-01 -2.228690859280E+00 -3.286550056407E+01 5.801620682644E+01 -1.304293567281E+00 -9.332191514171E-01 -7.926493516720E-01 5.328349131073E-01 2.714809726463E-01 -3.008725884294E+00 -8.615172276720E-01 -4.321883651874E+00 1.161691557582E+00 1.844678202811E+00 -2.120742393976E+00 -4.101290198656E+00 7.906733989752E-01 -4.271167619146E+02 -7.149018970682E+02 -7.120390619824E+00 2.291506973038E-01 5.188592758010E-01 2.715408256236E-02 4.241044797815E+02 -7.140716413343E+02 7.027949743773E+00 1.420328592970E+00 -1.495805259029E+03 1.118133759423E+00 3.375486664551E+01 5.948811740362E+01 7.442858849719E-01 4.240384880656E+00 2.807566884242E+03
 -2.115869252750E-01 -4.375278456120E-02 3.994191108402E+00 -6.405061920706E-01 3.800257760950E-01 -1.003403179766E+01 -6.988078447794E-02 -3.362640684538E-01 2.416931754112E+00 -6.588701210742E-01 4.496977992432E-01 6.879666111117E-01 2.441597448058E-01 1.138471781129E-01 3.293312439195E+00 -1.973536506479E-01 3.391136731742E-01 9.561743347127E+00 4.762928754683E-01 -1.065812553368E-01 -6.976591195931E-01 9.822679561064E-01 1.784377402017E-01 1.032989282858E+00 1.550775516735E+00 -7.430047117490E-01 -2.578563389812E+00 -4.756477220862E-01 9.648185961696E-01 -1.907505295094E+00 -1.908645134855E+01 -6.080977651769E+00 -8.234993161786E+01 2.172606702969E-01 3.844770797564E-01 -1.059904777291E+01 -1.811464467291E+01 7.853221087924E+00 -8.033046751090E+01 -6.965613201762E+00 1.275358598612E+00 -8.154640877701E+01 -4.591476284961E-01 -1.235337739029E+00 9.547439212016E+00 4.284754903301E+01 -2.873475669747E+00 1.916143439625E+02
 9.786461102791E-02 -2.238812261519E-01 1.491614368867E-01 4.633785271826E+00 9.147708173055E-02 2.356841180963E-01 2.382269118051E+00 8.145077898247E-01 -2.832244238384E-01 3.070033330054E+00 6.605545209532E-01 -4.252125821812E-01 4.244285956450E-01 4.503665880079E-01 -1.636934191004E+00 -4.682517847992E-01 -2.028607662931E-01 -1.212864910605E-01 -1.146939042238E+00 2.547159209439E-01 4.445336462528E-02 -3.994918751294E+00 -2.549297591093E+00 -2.975714013723E-01 -9.154416339596E+00 2.520624649177E+00 1.091979860109E+00 -2.482374411975E+00 -8.906914661557E+00 1.005503167220E+00 1.796498848515E-01 -5.555912108759E-02 -1.886187849206E-01 -1.502913320174E+03 -5.282475209303E+02 -2.624448858879E+01 4.222607753102E-01 2.777524557866E-01 -3.948754151902E-01 -1.277376204458E+03 4.349129065934E+02 -2.511441951753E+01 4.872850287695E+01 -1.164128258662E+00 9.033824979246E-01 3.856369714512E+01 -8.454758523147E-01 5.569616547353E-01 3.071592097972E+03
 1.336676871385E-01 3.378992878422E-01 -9.940421510073E-02 -2.457468226448E+00 2.609478168899E-01 -4.129107646395E-01 -4.938304344120E-01 -6.202073123281E-02 5.048710749398E-01 -1.282328380620E+00 2.929461611531E-01 4.228194948597E-01 -7.706914577878E-01 -5.281672533838E-01 1.736380610262E+00 3.980699293078E-01 -3.573683028035E-02 1.960649757188E-01 5.771461347486E-01 -3.340415247715E-01 -1.999293273423E-01 1.783434113169E+00 -3.764966126734E-02 2.722302295923E-01 2.685946340903E+00 5.816875560222E-02 -4.019687906367E-01 1.765545694347E+00 1.801680213574E+00 -1.359232926910E-01 -3.381654923734E-01 1.650967658772E-01 2.502574135280E-01 -5.388432666406E+02 -8.704530967635E+02 -7.390407035772E+00 -2.282570004650E-01 1.686666053599E-01 3.296272542532E-01 4.197272582776E+02 -7.199168130820E+02 1.029653494705E+01 -8.581298553648E+01 2.014804160206E+00 -1.799267807880E+00 7.172805456750E+01 -6.343547314631E-01 1.759601382928E+00 9.013191747453E+01 2.537047904861E+03
 7.097316193555E-02 1.097876537322E-01 4.876683369518E-01 2.299082931160E-01 -2.662666979511E-01 5.573129831164E+00 -1.066269671111E-01 4.904776575666E-02 -2.309989953772E+00 -1.393842478814E-01 -2.130559883930E-01 -8.044344289293E-01 -9.111054336880E-02 -5.767690572522E-02 -2.444038110360E+00 -2.165345719397E-01 7.610344153017E-03 -5.989595767962E-01 -4.031122960255E-01 -1.014900240863E-01 7.131130465899E-01 -2.864666115225E-01 -2.349494537863E-01 -9.141313791186E-01 -6.993140347452E-01 5.112154905676E-01 1.955379228636E+00 3.102300537359E-01 -1.149333958455E-01 1.115232892806E+00 5.660612488776E-01 -1.738521037390E-01 -1.083621538625E+01 -2.621412536741E+01 -7.316311403510E+00 -7.065855697650E+01 1.374698079802E-02 -2.935481609817E-01 4.315979547170E+00 -2.525457062380E+01 1.031904894775E+01 -7.664997320976E+01 7.338756863121E-01 1.495377541879E-01 1.107704289435E+01 5.011141565239E-01 4.869406903576E-01 9.188399198193E+00 5.684446674666E+01 -8.256168117887E+00 1.521124702325E+02
 2.024605748866E+00 -4.736429696573E-02 -1.906941290197E+00 -1.223450283575E+03 4.450231430418E+02 -2.440133268379E+01 7.353901946147E+00 8.781162246362E+00 7.998517319595E+00 1.429133165874E+01 -1.441783622407E+00 9.713091163465E-01 -1.651071067684E+00 -5.137891867753E-02 4.350114792388E+00 3.858087958886E+01 -8.341248628028E-01 2.442069047853E+00 -5.712358270579E-01 1.650279851748E+00 -2.180688275420E+00 -3.148951190907E+01 2.950423110697E+01 2.252524744910E+00 -2.254676529457E+01 7.369030737129E+00 -5.249875200060E+00 -4.537870336596E+00 -2.366196597619E+01 -2.194843772006E+00 2.214372619183E-01 -4.181959133055E-01 1.278889744864E+00 1.420858286410E+00 1.340784427317E+00 -1.181503742702E+00 -8.259827402872E-01 3.311512876401E-01 4.766320933073E-01 -1.133839500015E+03 -3.870339664183E+02 -1.913905915645E+01 -3.731092810391E-01 -6.624770086475E-01 8.259274637661E-03 3.707344114670E+01 -2.389132773424E-01 1.757919895093E+00 -2.130739090413E+01 -3.172766000869E+01 -1.126555697482E+00 2.721504058064E+03
 -4.944393653237E-01 1.985781024134E+00 1.675442516097E+00 4.479160383719E+02 -7.257023259064E+02 9.548115357385E+00 -1.939164468346E-01 -6.174583484611E+00 -7.531752653999E+00 -1.215252889470E+01 6.631037160440E+00 -6.612404913786E-01 -3.383450588135E-01 -7.294909506440E-01 -1.968243296824E+00 6.780966234887E+01 -3.092690658437E+00 -8.995554693262E-02 -1.133491538087E+00 -3.912454693117E+00 1.850689891411E+00 -2.477970445292E+01 5.331772696215E+01 -3.365700200226E+00 2.491366883112E+00 2.168752933865E+00 4.699801190001E+00 1.431301608441E+00 4.740041074095E-01 3.120980530411E+00 1.871924805623E+00 1.300954771005E+00 -7.738724781279E-01 6.142267144808E-01 9.044719629423E-01 1.012986019623E+00 -1.167954617417E+00 1.981147135118E+00 1.404116298881E-01 -3.826790482277E+02 -6.719932292486E+02 -9.090150606511E+00 -1.870982379886E+00 -1.793107992004E+00 3.924398968522E-02 -6.651125404000E+01 -2.951853886681E+00 -2.069881060547E+00 3.172167781192E+01 5.675934983595E+01 8.654368339514E-01 -1.230342976216E+01 2.802323485159E+03
 7.737971892713E-03 3.064805782078E-01 4.933968984981E+00 -2.328465449202E+01 6.908698839135E+00 -8.235587457077E+01 -3.635314423082E-01 -4.121163447778E-01 -5.651242100820E-01 -1.359267272790E+00 2.907653648513E-01 4.648228520428E+00 -6.483587945922E-01 -4.523361311913E-01 3.265063403966E+00 1.096124781482E+00 6.879952060196E-03 8.683958365746E+00 4.173280451391E-01 -3.168908699248E-01 3.361236010427E-01 9.238267503873E-01 7.454925781079E-01 9.808064453011E+00 2.522377864393E+00 -5.591873178467E-01 -3.329517944207E+00 1.177269951546E+00 1.409849059076E+00 -2.637997576523E-01 -1.997996090809E-01 -1.392550264772E-02 5.132373135938E+00 1.692102368907E-01 -4.842039582774E-03 6.074571891156E+00 3.531309170877E-02 3.568734304933E-01 -7.819047456056E+00 -2.103771399296E+01 -7.518280411530E+00 -8.185671576309E+01 -1.334341078616E-01 -3.579676672206E-02 -6.966596241100E-01 6.932737970750E-01 -5.066949953467E-01 8.567306192382E+00 -3.551751203692E-01 -1.051938870123E+00 9.309893162371E+00 5.023723218121E+01 6.084890573385E+00 1.872283045533E+02