#BIOSYM hessian 1
@Type: Hessian Update
@Units
 distance: 	A
 energy: 	Kcal/Mol
#header
@natom 67

#label
C1      C2      C3      C4      C5      C6      C7      C8      C9      C10     C11     C12     C13     C14     C15     C16     C17     C18     C19     C20     C21     C22     C23     H24     C25     C26     C27     C28     C29     C30     C31     C32     C33     C34     C35     C36     C37     C38     C39     C40     C41     C42     C43     C44     C45     C46     C47     C48     C49     H50     H51     H52     H53     H54     H55     H56     H57     H58     H59     H60     H61     H62     H63     H64     H65     H66     H67

#element
C  C  C  C  C  C  C  C  C  C  C  C  C  C  C  C  C  C  C  C  C  C  C  H  C  C  C  C  C  C  C  C  C  C  C  C  C  C  C  C  C  C  C  C  C  C  C  C  C  H  H  H  H  H  H  H  H  H  H  H  H  H  H  H  H  H  H 

#matrix
201
 2.784225015971E+03
 -3.518839110570E+01 2.758146110358E+03
 -8.743506006492E+01 -1.647209677975E+02 2.141429653908E+02
 3.960112315699E+01 7.373599829504E+01 -4.166433674823E+00 2.791164116152E+03
 2.605547792413E+00 -3.901996575382E+01 3.451843368122E+00 -1.621814447150E+01 2.711839122086E+03
 -1.114849578657E+00 -1.474115595297E+00 8.368434238850E+00 6.036810617811E+00 -1.624712222264E+02 2.027170093667E+02
 -2.014520040936E+01 3.262732404131E+01 2.210351753986E+00 2.960409477719E-01 -1.764874432158E+00 -8.680446325096E-02 2.814888475595E+03
 -3.505485249798E+01 5.503062294402E+01 -2.358994491076E+00 6.431512735234E-01 -5.095479919515E+00 -8.171710394948E-02 -3.243763914089E+01 2.810926589018E+03
 2.988492164410E+00 -4.666367290774E+00 9.864259977715E+00 -1.086864109457E-01 5.571958035000E-01 1.425407722157E-01 -1.908288824769E+01 -1.070028870648E+02 1.998828800728E+02
 3.800126128257E+01 -6.532601353833E+01 3.679637894090E-01 -2.041407644253E+01 3.891367619955E+01 -1.394330675116E+00 4.228105848944E+01 7.236159711661E+01 -3.372417732204E+00 2.790842613495E+03
 1.591819312949E+00 -3.767004131881E+00 -1.158648616023E-01 -3.171997337759E+01 5.520772876794E+01 9.856108489173E-02 -4.326409142305E-02 -9.349608297595E-02 -1.186601169657E-01 -2.221668132874E+01 2.825154962960E+03
 -1.714592075723E+00 4.175748857429E+00 9.112177387406E+00 1.796636326894E+00 -2.266883465023E+00 8.973624990271E+00 -5.780659234575E-01 2.468411179624E-01 9.002446450482E+00 -3.161354919212E+01 -1.033010675142E+02 1.995500091251E+02
 -6.074317958251E-01 3.718396086165E+00 2.008297113000E-01 -5.930525082648E-01 3.105104732988E+00 8.901933043162E-02 4.230612187442E+01 -7.285332278812E+01 3.275055183327E+00 -2.191562756096E+01 3.821100014924E+01 -9.275338947208E-01 2.636962873399E+03
 3.109770945752E-01 -1.258741658278E+01 2.695881455636E-01 2.572599495073E+00 -1.444946609635E+01 4.287820027720E-01 -1.104840838913E-01 -2.583786429711E+00 7.767926728462E-01 -3.435102898501E+01 6.177177260127E+01 -1.746120120796E+00 -2.240788444630E+02 2.888940747220E+03
 1.014581620763E-02 -7.303780619087E-01 3.120032767005E-03 4.664196670529E-01 -1.669474588185E+00 9.393012560760E-01 -7.676547570061E-02 6.506682148495E-01 1.064389086980E+01 2.065494043034E+00 -2.210272298675E+00 1.040664951005E+01 -1.572081978413E+01 -1.164338772514E+02 1.606932540006E+02
 -1.230458100908E+03 4.490592159414E+02 -1.965432254223E+00 -4.718971909452E+02 -1.125218181727E+01 -9.288197924693E-02 -2.575461051931E-01 -2.263532589990E-01 -1.873626099826E-01 5.085973672522E-01 -7.581814051323E-01 2.152885936273E-01 2.488532014277E-01 -7.024974785365E-01 -9.538542250085E-02 2.825415679895E+03
 4.399297002778E+02 -6.847183240300E+02 1.611572367537E+01 -1.628633364819E+01 -1.381326007892E+03 9.307193100946E+01 1.914897730036E+00 4.891254462379E+00 -4.890594514666E-02 -3.813218876449E+00 4.658368243911E+00 -9.647583137464E-01 -3.556246544036E+00 1.516256366530E+01 1.648598446235E+00 6.732902473848E-01 2.706058479193E+03
 -3.531588795452E+00 2.912455437879E+01 -8.442066898512E+01 -3.481534003062E-01 8.196531810108E+01 -8.814674496224E+01 -9.616398316804E-01 1.714601527350E+00 4.458327328627E+00 2.533742959404E+00 -5.164283494372E-01 -8.674602757680E+00 8.249052014908E-01 5.714426814210E-01 -6.292501232577E-01 5.200324473018E+00 -1.313522096950E+02 1.998562351357E+02
 -1.187619312317E+03 -4.103286908402E+02 5.985276588239E+01 -6.857996742440E-02 3.146776909444E+00 1.662408944180E+00 -1.263251116200E+03 4.485735954794E+02 -9.714595201917E+00 -4.861586715954E+02 -8.384650423478E+00 8.499843477031E+00 8.608290592103E-02 1.263187622769E+00 2.766571531902E-01 -1.963117380923E+01 -3.587242196505E+01 2.093320813455E+00 2.817221499812E+03
 -4.134936098390E+02 -6.947776098330E+02 5.526642980913E+01 5.663782428719E-02 -4.016775328934E-01 -2.716159962122E-01 4.490111464041E+02 -7.465070455325E+02 2.907747833978E+01 -1.077098070897E+01 -1.509932979869E+03 5.391680334205E+01 -4.916379043829E-01 -4.626642558351E-01 -8.199788984513E-01 3.383637884310E+01 5.460944004313E+01 -8.148832325896E+00 -2.935731163198E+01 2.837050928612E+03
 5.691398891226E+01 5.067094881820E+01 -8.712629038926E+01 9.727480035401E-01 -3.170810837091E-01 -7.999042834276E+00 -5.153973523832E+00 2.347187066117E+01 -8.653510014017E+01 7.943183930509E+00 6.130946650882E+01 -8.786331089950E+01 -2.088859619059E+00 -1.401820175434E+00 -9.159648376521E+00 -1.759165908213E+00 -2.597296735737E-01 9.140461508454E+00 -5.872545300933E+01 -1.316943928128E+02 2.059159313827E+02
 -7.128059569816E-01 9.707270437740E-01 3.487853824323E-01 -1.218654396200E+03 -4.223259874804E+02 3.025513170345E+01 3.615352186967E-01 3.439546723634E-02 7.525522147691E-01 -1.227544169666E+03 4.400892793249E+02 -2.657241363438E+00 -8.737403230819E-02 -5.117009136422E-01 3.463009031838E-01 3.790196632951E+01 4.291875527291E-01 -2.768031772313E+00 4.162687501212E+01 -1.203784156777E+00 -1.555516192837E+00 2.808764216680E+03
 -2.101157452044E+00 1.272132827357E+01 -1.603304846519E+00 -4.261619237522E+02 -6.875861277048E+02 3.451623864954E+01 2.300808793280E-01 1.105043196947E+00 4.056461228790E-02 4.370520045433E+02 -7.312199892855E+02 2.031825026585E+01 -1.060551366759E+00 4.440909716095E+00 4.239839726952E-01 -6.586880444781E+01 -1.454946125718E+01 2.852663667570E+00 6.923020642844E+01 -8.491677568788E-01 -1.582873772973E+00 8.854490330129E-01 2.793752434560E+03
 1.152925544697E+00 -2.491580114970E+00 -8.702138593631E+00 3.051961233578E+01 3.627404759556E+01 -8.314335352249E+01 -1.923009172860E-01 -3.304383374596E-01 4.961661531568E+00 -2.245914012799E+00 1.935138414350E+01 -8.432073088147E+01 3.895966068836E-01 -6.947469457290E-01 5.321002383946E+00 4.472665376783E+00 2.767170049069E+00 8.222664354078E+00 -2.765973164965E+00 1.431098129799E+00 9.543740131285E+00 -3.196961487406E+01 -1.166872863116E+02 2.001674503298E+02
 -5.048115636956E-01 -3.709443627763E+00 -6.191306589852E-01 1.368625095734E+00 -6.281246388399E+00 -3.928909530273E-01 -1.195194995789E+03 -4.084371649479E+02 2.503034748113E+01 5.135229226066E-01 -1.498682738043E-01 -3.889148623540E-01 -5.248486658510E+02 8.572320029765E+00 2.223315292812E+00 -4.926769255991E-01 5.536785785947E+00 -4.707119687839E-01 -1.977604315165E+01 -3.452389312273E+01 1.401657504345E+00 -9.423909395152E-01 1.946457092810E+00 -6.256884694444E-01 2.770579233973E+03
 -4.721109827471E-01 1.512302457018E+01 -3.629438272208E-01 -2.980544741712E+00 1.730451649252E+01 -1.823309087718E-01 -4.158736322372E+02 -6.985253662212E+02 2.871296333745E+01 -1.243429339226E+00 1.310901438032E+00 -1.008322630565E+00 1.146988767191E+01 -1.626993301229E+03 6.873610175358E+01 7.382642756258E-01 -1.833903542201E+01 -1.262384194149E+00 3.308486102070E+01 5.954769984697E+01 9.974570001080E-01 6.956622558183E-01 -5.384273942817E+00 1.000046822417E+00 -3.231548064355E+01 2.947512437587E+03
 -1.804352848540E-02 1.408703307970E-01 4.495308931469E+00 -4.493636128428E-01 7.322912729143E-01 -1.633987817471E+00 2.490837330551E+01 2.873851609564E+01 -8.431295451087E+01 -3.662093716032E-01 -1.006829237117E+00 -9.480888024686E+00 2.779213662602E+00 6.882456152667E+01 -8.252000754032E+01 4.467394860361E-02 -9.533363091616E-01 9.638725138344E-01 -1.702112807549E+00 -1.190026391704E+00 8.987910793879E+00 -4.487910807466E-01 1.584760194296E-01 -7.954537153835E-01 -1.253210675085E+01 -1.224337885626E+02 1.895401000093E+02
 8.570411566372E-01 -3.375421197579E+00 4.101820268975E-01 2.996066639916E-01 -2.707361445072E+00 -1.040791238443E+00 -6.035273194375E-01 -3.873789779450E-01 -6.550094071015E-01 -1.195070315298E+03 -4.166382926424E+02 2.846421498447E+01 -1.336158790721E+03 4.946399152500E+02 -8.550931548366E+00 -1.909149819180E-01 2.965571731581E+00 -8.478483126675E-01 3.865256177467E+01 2.961124451702E-01 1.754937251308E+00 -1.943068866066E+01 -3.166731143360E+01 8.311940429335E-01 4.994985364586E+01 1.174344741084E+00 1.538965552175E-01 2.883547085033E+03
 -6.326618492571E-02 4.219193069086E+00 6.648099442420E-01 -9.062626931630E-01 4.414929912786E+00 -5.216756663951E-01 2.587969442785E-01 7.964316770049E-01 -4.657756739522E-01 -4.080519578508E+02 -7.023646949301E+02 2.881437761156E+01 4.933316150113E+02 -8.166437266266E+02 2.554575449896E+01 3.459463335368E-01 -4.564912196757E+00 2.064785101848E-01 -6.914626081674E+01 6.095187342339E-01 -5.089045842625E-01 3.409979427410E+01 5.709170256177E+01 -2.004023655072E+00 8.165274272241E+01 -1.089383707542E+00 -4.042489995064E-01 -9.892035866713E+01 2.838780328300E+03
 1.142400797187E-01 8.121822565190E-01 3.945473382530E+00 8.554067753935E-03 9.904090507397E-01 4.925593648431E+00 -8.063259785200E-02 -8.647392392365E-02 -9.974110612095E+00 2.735376105968E+01 2.791833994429E+01 -8.437341387546E+01 -7.184150419172E+00 2.566892155368E+01 -7.838616098124E+01 3.960491872520E-02 -6.895254931201E-01 2.621004959643E-01 2.605944310836E+00 4.518157925472E-01 1.121285465275E+01 -9.233863257235E-01 -1.734563187554E+00 8.635351331971E+00 -4.395803165479E+00 3.403131616008E-02 1.035506970670E+01 -2.221511414376E+01 -1.018217506186E+02 1.871784729889E+02
 5.656550639144E-02 4.372694021505E+00 3.092885609654E-01 -7.490944853043E-01 5.108575597599E+00 1.391834779107E-01 5.597540947227E-01 1.367781811932E+00 -2.842548226993E-02 -3.661302271773E-01 -1.490462724068E-01 -7.537185051906E-02 -4.135660733121E-01 1.791789549112E+00 2.232801690284E-01 1.395176234654E-01 -5.000416556237E+00 5.635003429561E-01 -6.821872402127E-01 5.327666501070E-01 -1.271257672051E-02 -4.915914700312E-02 -1.263951123915E+00 2.983222016936E-01 4.841622429624E-01 -2.113435650546E+00 -1.017625926251E-01 4.417549584011E-01 -7.116330176811E-01 -1.145947927871E-01 2.810959641674E+03
 -3.885253735051E-01 4.874080356697E-01 5.367256271324E-01 -3.165254181235E-01 1.587675661432E+00 9.130605553822E-02 -4.344596622106E-01 -7.307494129857E-01 -3.108553747759E-02 -2.448613902992E-01 7.738500631172E-01 -1.914818521577E-01 5.503504506970E-02 4.620940034440E-01 2.857379043100E-01 -1.228385074742E-03 -1.363037253687E+00 1.393134552286E+00 1.772032769695E-01 -2.889807431268E-01 -3.733123981866E-02 5.166778311067E-01 -8.499328975188E-01 7.295725989090E-03 7.234024120475E-01 -6.120618885897E-01 -2.742525250816E-01 -1.878644297822E-01 1.664918706951E-01 8.635462221379E-03 3.051902078834E+00 2.793471918136E+03
 -2.105094998708E-02 1.196096544352E+00 -3.063589601318E-01 -2.708304043650E-01 2.323761419853E+00 -6.742661677902E-01 1.843903111011E-01 1.465779404216E-01 -5.858795745180E-02 -3.289853495573E-01 -1.092823624656E-02 3.173753685923E-01 -2.876676648631E-01 5.942130771179E-01 -3.836087478994E-01 2.664393130902E-01 -1.979034154780E+00 5.259119330980E+00 -1.779578494364E-01 1.889849989306E-01 -9.748482394915E-02 4.282438141377E-02 -6.398590857714E-01 -3.448585488188E-01 2.825314133407E-01 -5.843803454005E-01 6.472171575063E-01 4.165810823550E-01 -1.466868128032E-01 1.008129115952E-01 2.533489719559E+01 -1.021467368194E+02 1.982175480909E+02
 8.488422475156E-01 -1.437814144237E+00 -3.915115060229E-01 -2.374051971858E-01 -4.193737892172E-01 -2.462110389428E-01 -5.516988420823E-02 1.298469676474E-01 1.994304438801E-02 -7.069424605798E-02 -3.874998678984E-01 1.725219541192E-01 8.316237959606E-02 -7.302080309862E-03 -2.164851788193E-01 1.385147512896E-01 8.891107551119E-01 -6.797655847747E-01 -1.739377399042E-01 5.733244675120E-01 -1.400570283496E-01 1.113309300292E-01 3.806201304322E-01 -2.427186344010E-02 3.531776901981E-01 9.409095702553E-03 3.684253383782E-01 2.554498760021E-02 1.145049724335E-01 -5.173648220355E-02 4.144039280559E+01 7.148346808738E+01 -2.841125263853E+00 2.783307245677E+03
 3.525644390037E-01 -1.129414696892E+01 4.413011583582E-01 2.499033343090E+00 -1.363903421184E+01 2.490532786482E-01 -4.848681176125E-01 -1.617569766417E+00 -1.528788373334E-02 1.229775160056E+00 -1.080166877474E+00 2.619936074910E-01 8.717514863042E-01 -4.632983188417E+00 -6.145104840996E-01 -7.241459012999E-01 1.408586000878E+01 1.036036969178E-01 1.067031402458E+00 -3.213890657546E-01 1.311886270173E-01 -5.971386548603E-01 4.210879773916E+00 -8.682395233287E-01 -2.244254420030E+00 5.561635608577E+00 2.906758618944E-01 -7.237071424686E-01 1.271652990700E+00 1.931498003304E-01 3.098809237150E-01 -1.208577507374E+00 1.234248106650E+00 2.808795054769E+02 2.848923122367E+03
 -3.260461289585E-01 1.184256331915E+00 -5.759766587028E-01 -1.576525347842E-01 1.161981752374E+00 -8.221000543447E-02 2.262855337720E-01 1.099460137067E-01 -4.393389644119E-02 -2.716579724506E-02 1.924989575147E-01 2.100142992108E-01 -7.489455816396E-02 3.893957448032E-01 -1.027820474668E-01 -3.251470591795E-03 -1.312553588395E+00 8.454798949922E-01 6.230933187441E-02 -1.841944468886E-01 7.596793288076E-01 -1.608932862835E-02 -5.369704255028E-01 -2.219446610512E-01 -2.873590117014E-01 -2.398978332017E-01 6.733168065461E-02 -6.537854101865E-02 -2.237428635122E-01 4.952709864737E-01 -2.746363572090E-02 1.032996003322E+00 1.119849908332E+01 1.694195104163E+01 -1.123648198501E+02 1.551406745285E+02
 -1.689358645609E+01 -3.955115215809E+01 4.757320027545E+00 3.901019902336E+01 -1.999919440382E+00 1.472561806650E+00 -1.040634986360E-02 1.466100003724E+00 2.012086384616E-02 5.025506345605E-01 -1.495386728654E+00 -1.545615060341E-01 5.184830141977E-01 7.983986116660E-03 3.853325664329E-01 -1.247379235623E+03 -4.319068810733E+02 -1.251314665836E+00 -6.318923930330E-01 2.517068804638E+00 -8.806184727184E-02 3.641806416752E-01 1.554202881778E+00 -4.513029374910E-01 4.766566281690E-01 5.632596871625E-02 -2.752407775415E-01 -6.211864794109E-01 -8.848715925534E-02 9.284684284155E-02 -2.052055411413E+01 3.499443986565E+01 -3.229036809364E+00 -8.879799466623E-01 1.735206827853E-01 2.848348461579E-01 2.775693051763E+03
 4.144551181418E+01 1.165618760903E+01 4.420713814978E-01 -6.024362900509E+01 -4.320766908113E+01 -1.741275593495E+00 -2.094450391371E+00 -5.689243254252E+00 -1.740258434267E-03 3.435213105201E+00 -4.391418415076E+00 5.634765422031E-01 3.830739287968E+00 -1.465713874925E+01 -1.019132430374E+00 -4.432341077366E+02 -6.629853326764E+02 2.650834077723E+01 2.999741016278E+00 2.620503788982E+00 -3.779763814084E-02 6.793122008591E-01 1.424038783710E+01 -2.373995447198E+00 -4.533384955282E+00 1.757298947711E+01 3.486729556824E-02 -3.376084254727E+00 4.919854394745E+00 6.585555523045E-01 -2.676678671884E+01 5.729548913781E+01 -3.350357443241E+00 -1.275309363311E+00 -1.304531256715E+01 1.121185119842E+00 3.024289392198E+01 2.737925205524E+03
 -5.309029781582E+00 -8.509358327393E-01 1.151022902522E+01 4.447399971515E+00 1.980453180206E+00 9.936905138985E+00 -6.774553734901E-01 6.310177493833E-01 2.533508998404E-01 -4.069493542027E-01 -1.374272786064E+00 -4.189989531574E-01 3.481697820827E-01 5.002105897482E-02 4.934891235363E-01 -3.219386224665E+00 1.518301675905E+01 -8.491509282988E+01 5.433681201740E-01 9.212001518986E-01 3.750161574724E+00 1.864286061660E+00 2.869614211208E-01 5.228556006321E+00 -5.030702226504E-01 -6.178386675441E-01 -8.244298836751E-01 -6.967064637279E-01 -5.869667770502E-02 -3.386271511276E-01 -2.111544480517E+00 -1.802822011772E+00 8.084958163628E+00 -9.932397443970E-01 -1.670295622996E-01 -8.877819795384E-01 9.734648183676E+01 -1.626472591939E+02 2.140722791804E+02
 1.742666805179E+00 -6.120777027645E-01 4.802924529145E-01 -1.899779743590E+01 -3.095121384820E+01 1.516997137249E+00 4.299388233755E-01 6.690723124829E-01 1.022262445585E-01 5.335440760345E-02 -4.808192564122E-01 3.131173373125E-02 1.747528293777E-01 2.292882601630E-01 2.015077839776E-01 2.276084044802E-01 7.898748397632E-01 -2.530666193527E+00 -2.682274668577E-01 5.834997240170E-01 5.663577978427E-01 1.682000161001E-01 2.553289055791E-01 4.148732164940E-01 1.038397908441E-01 -2.510950179558E-01 -3.877862004859E-01 -1.871638840143E-01 -1.401012844794E-01 8.586892275989E-02 3.930307740392E+01 -6.884819273340E+01 3.250042702168E+00 -2.334546550185E+01 4.072185643404E+01 -1.787396913530E+00 3.793254416635E+01 6.665976441493E+01 -4.168230934228E-01 2.775399942291E+03
 1.551824081862E+00 -2.420042162175E+00 -1.741678035436E+00 3.337879502643E+01 5.428785436782E+01 -2.693462674737E-01 3.180960247880E-01 6.816053017625E-01 7.326043229290E-02 6.231084278617E-02 -8.846064892520E-01 -1.544570530748E-01 2.177421321162E-01 -2.007769987950E-01 2.117260166759E-01 5.186291115136E-01 1.892689527368E+00 -4.279862373089E-01 -3.382873705803E-01 1.062338249366E+00 -9.311703802280E-02 1.690945185059E-01 8.583309125481E-01 4.062982922056E-01 8.804278849437E-02 1.810669411050E-01 -2.140510662680E-01 -8.562050836109E-02 2.178508006754E-02 -1.562068659844E-01 -5.788008315339E-01 8.560860443601E-01 -5.969360070532E-01 -4.186486349257E+01 7.383496662909E+01 -3.177742129217E+00 -2.199938011032E+00 -1.905479845044E+00 3.347867972617E-02 -3.476457326129E+01 2.748163693352E+03
 -1.240446255708E-02 2.218435323166E+00 -9.571381405466E-01 -2.817863295153E+00 5.540243989954E-02 7.186756609496E+00 2.950171114262E-01 3.555218265391E-01 -1.671511261132E-01 -4.260361576889E-01 -1.105022424265E-01 6.522122520160E-01 -3.571181630568E-01 1.119699558094E+00 -6.640884070803E-01 -1.621986256294E-01 -3.412492174978E+00 -6.939270014632E+00 -3.529144779685E-01 2.488735623791E-01 5.280663782108E-01 6.311918986750E-02 -5.069051998280E-01 3.421203211197E+00 1.615750684532E-01 -1.002119960333E+00 1.057634573738E+00 4.084759646824E-01 -3.193098920610E-01 5.440498180243E-01 2.018463512416E-01 -2.552650407565E-01 1.087557421491E+01 1.144590358945E+00 -1.716912292233E+00 1.401407761594E+01 1.828897266499E+00 6.346383548600E+00 6.629061009148E+00 4.122232575364E+01 -1.016517209889E+02 1.925001219862E+02
 -1.450101056034E-02 -3.615597053354E+00 6.048603434586E-01 7.445057574303E-01 -3.234424447069E+00 2.494685988033E-01 -4.811517327979E-01 -8.475268055471E-01 1.499257707919E-02 3.765949625940E-01 1.038148563352E-01 -6.703375567682E-02 3.723227361713E-01 -1.101748671396E+00 9.475899733695E-02 -2.591984294316E-01 3.636732534359E+00 3.815904289839E-01 4.662305763303E-01 -8.028964176501E-02 1.577911489480E-01 2.321969539359E-01 8.283415195795E-01 -1.630872126710E-01 -3.055509530655E-01 1.324358613467E+00 -2.599042276980E-01 -5.487622865886E-01 4.431434244517E-01 1.986880023061E-01 -1.233127862808E+03 4.337925017358E+02 -2.785054077433E+01 -5.096050564735E+02 -2.151348867289E+01 -2.924618832532E+00 9.361544476691E-02 -4.224012834362E+00 1.318780337522E+00 1.148912563695E-01 -5.768278068372E-01 8.708160122483E-01 2.840491732547E+03
 -3.627674356865E-01 1.042775427393E+01 -8.463973650506E-01 -2.293277717056E+00 1.188898837277E+01 -1.128028399743E-01 5.234205306328E-01 1.515437170060E+00 4.680006261995E-02 -1.069966647529E+00 9.043226855710E-01 -2.221282820681E-01 -8.156739303540E-01 4.037002828594E+00 5.180548542110E-01 7.550918335170E-01 -1.265328113864E+01 -1.004673000865E+00 -9.530776510742E-01 1.688319749269E-01 -9.370581522555E-03 3.981877175054E-01 -3.662071292973E+00 9.237105800311E-01 1.851222134991E+00 -4.837127376204E+00 -2.649171932063E-01 7.072401889592E-01 -1.168550700332E+00 -1.883858185558E-01 4.347469561866E+02 -7.280689049908E+02 2.911913935297E+01 -3.061584247418E+01 -1.534717854913E+03 6.149994675774E+01 -7.950608371712E-02 1.194606909190E+01 1.382053019456E-01 -5.552464307604E-01 2.993720846787E-01 -1.639262091365E+00 3.568931821131E+01 2.886097798732E+03
 -7.041312497688E-02 -7.164942660701E-01 1.565346971422E-01 -1.221392204951E-01 -4.104608975200E-01 -7.883571950401E-01 -2.152488698377E-01 -1.822294330984E-02 -8.142545500601E-02 -1.362071390208E-01 -2.798924858914E-01 2.754068727079E-01 -1.110247166740E-01 -8.410591136880E-02 -5.590478904896E-01 -2.777414176138E-02 2.982682434588E-01 4.615441772965E-01 -1.382846413042E-01 2.513608968434E-01 -7.956409018304E-01 -2.025213939822E-01 3.026482223209E-01 -4.431868373974E-01 2.566189923434E-01 4.721437031523E-02 9.477830640388E-01 3.289088345898E-01 1.151948048229E-01 -2.443464548123E-01 -2.791755410659E+01 2.941765414212E+01 -8.566718202918E+01 -2.565947767477E+00 6.171196571712E+01 -8.001079740694E+01 -4.068714929958E-02 -5.058201616971E-01 4.117954347076E+00 -2.361375410734E-01 -5.368522699277E-01 -9.961828361740E+00 1.969842047408E+01 -1.138035550112E+02 1.895463680952E+02
 -1.119540408759E+00 -4.754910454153E+00 2.995995010814E-01 1.374994496117E+00 -6.302971485675E+00 -1.630928846853E+00 -8.606258853298E-01 -1.593358607890E+00 -1.295383317533E-01 4.478913421351E-01 5.690672800793E-02 2.722610898266E-01 3.078828394306E-01 -2.240613117948E+00 -6.814687905341E-01 -2.030991825597E+01 4.027961574313E+01 -2.103565334528E+00 6.594979185692E-01 -7.958992868926E-01 -6.479858514833E-01 -4.133779239381E-01 1.689610539483E+00 -9.987616700413E-01 -7.417511600038E-01 2.626675763336E+00 8.078163217778E-01 -1.705269252311E-01 8.833416654263E-01 -4.341095822929E-02 -1.221090155070E+03 -4.254073015678E+02 6.614507316299E+00 4.903169898797E-01 -2.285157421242E+00 9.525949514034E-02 -1.164930130346E+03 4.187527850454E+02 -6.449809602114E+01 -4.718415609542E+02 -1.249692449470E+01 -8.300430373237E+00 -2.068918059028E+01 -3.174372636409E+01 1.427545946250E+00 2.744851203815E+03
 -2.188364649638E+00 4.559909139784E+00 1.079662540477E+00 -5.208933717143E-01 1.144026540771E+00 -6.157540387173E-01 -2.597051370023E-01 -3.440399793667E-01 2.253179677353E-02 -8.910156483918E-02 8.512657257955E-01 2.492590827404E-01 -4.708598645225E-01 4.341062366169E-01 -4.876945075811E-01 -3.228711526727E+01 5.301228122176E+01 -8.192435437751E+00 3.090828414885E-01 -1.305784285270E+00 -1.108095074888E-01 -6.025863830153E-01 -9.280931632369E-01 2.741605848367E-01 -2.027399235253E-01 -4.939645109357E-01 6.080442059400E-01 3.660981649697E-01 -2.580434800352E-01 -6.749911643084E-05 -4.279967309798E+02 -7.124046210584E+02 2.666156848553E+01 3.660964246226E-01 -1.176311349426E-01 -6.187732808561E-01 4.271213682158E+02 -7.090785171923E+02 5.808257175123E+01 -3.001993886244E+00 -1.494293466803E+03 5.249022242485E+01 3.488354880633E+01 5.910654947092E+01 -1.281140677617E+00 6.473029802936E+00 2.802772036729E+03
 3.041765180464E-01 -1.038477499112E+00 3.681660378095E+00 -4.017223217303E-01 -1.214085145397E+00 -7.419532568683E+00 2.035929362925E-01 -1.959831771221E-01 4.800732433373E-02 8.936393708052E-02 4.797942023171E-01 -4.353854483835E-01 3.349550759929E-01 -2.436848326283E-01 1.024309639649E+00 1.585484515448E+00 1.241698807343E+00 8.697267109955E+00 5.790200385320E-01 -1.630717303647E-01 2.122111738432E+00 2.885548569033E-01 -3.355409577195E-01 5.310557039923E-01 -6.885043829651E-01 5.925076900517E-01 -1.782347778702E+00 -8.175866340746E-01 -2.233367830158E-01 7.199565966519E-01 2.587654126108E+00 2.081042338952E+01 -8.366197388429E+01 2.460657939452E+00 -1.126470663467E+00 -1.005754418328E+01 -6.152727711525E+01 5.264401892828E+01 -8.539903930182E+01 -8.044397352811E+00 5.953462309349E+01 -8.519410428536E+01 -2.106300250533E+00 7.731413028554E-01 8.813993942553E+00 6.663368804109E+01 -1.303415815788E+02 2.007912936502E+02
 -1.263538750137E+00 5.614557567583E+00 2.664754778180E-01 -9.333603364155E-01 5.499188069617E+00 1.376227102713E-01 2.273552058846E-02 1.780957390079E-01 -4.290482616119E-02 -4.883886364572E-01 9.468515470341E-01 -1.982033198121E-01 -4.510360501255E-01 1.741206746514E+00 2.946026083856E-01 1.911458796300E-01 -6.388014130139E+00 5.787651250303E-01 -1.470284273870E-01 -5.088917363935E-01 -2.615328705860E-02 1.535660905023E-01 -2.040690864522E+00 2.751611218181E-01 6.915206085174E-01 -2.088563824061E+00 -2.112237290778E-01 3.141551221111E-01 -4.878826570018E-01 -4.737741296285E-02 -5.878407203190E-01 -6.162647222482E-01 1.537591461897E-01 -1.506900097101E+03 -5.265102872132E+02 6.847482830046E+00 1.315140858175E+00 6.008656441258E+00 7.312614137875E-01 -1.277893136325E+03 4.342918097570E+02 -3.350287906654E+01 4.949816946733E+01 -2.621830520208E+00 5.418935686724E-01 3.947934075516E+01 -9.174669667604E-01 -1.744596105886E+00 3.074025577256E+03
 2.528798817505E-02 2.495533845340E-01 1.549418536547E-01 2.578717176519E-01 3.883443262508E-01 6.288832683136E-01 2.672083846129E-01 2.876091872249E-01 2.760506990153E-02 1.617214535968E-01 9.094267059339E-04 -1.737491253774E-01 5.522980569415E-02 8.517401404704E-02 3.671570478321E-01 -5.998358670873E-02 3.146182682914E-02 5.391611773117E-01 6.209942473470E-02 4.856548766785E-02 3.983791703727E-01 1.118077713884E-01 -1.461225609792E-01 1.299072316810E-01 -3.842087791096E-01 -3.820103274924E-02 -6.117590643560E-01 -2.288177147398E-01 -2.040331988836E-01 2.228569024818E-01 -1.479136883443E-01 3.300655393001E-01 -4.394445484408E-01 -5.385236881032E+02 -8.621752998096E+02 2.825646467920E+01 -1.393358332733E-01 3.499788682126E-01 9.180125767967E-01 4.184162039594E+02 -7.235775904359E+02 3.203614277731E+01 -8.512070487730E+01 1.958578964746E+00 -9.185672711393E-01 7.192026405312E+01 -1.158052609473E-01 -1.773163933718E-02 9.169400281843E+01 2.531753975325E+03
 1.061274552706E-01 -4.974258423744E-01 6.823092762115E-01 4.695068216548E-02 -4.301356315309E-01 4.346817066466E+00 -3.156806718337E-01 -8.359744598388E-02 2.329267722976E-02 -4.698605756256E-02 -1.195740151507E-01 -1.580766894555E-01 7.497252588572E-03 -1.990258207847E-01 -5.390144634170E-02 -1.355404933156E-02 3.779533226694E-01 -8.436020081251E-01 -1.535583204561E-01 7.595161448912E-02 -1.108099833066E+00 -1.230370316525E-01 4.060487115448E-01 1.573444591884E-01 5.053307605924E-01 -5.203337197128E-02 2.328836213653E-01 2.054789356291E-01 2.235136992018E-01 -6.513238298762E-01 4.840274607643E-01 -3.733132499090E-01 -1.083365312566E+01 7.264039229068E+00 2.818415709236E+01 -7.197729867316E+01 -4.861321270164E-01 -2.166020173361E-01 5.438815424201E+00 -3.252614487215E+01 3.141363292139E+01 -7.953364063327E+01 3.907834995559E+00 1.691697155180E-01 1.107127250186E+01 -2.159930105689E+00 5.594060826249E-01 9.081716186108E+00 2.939507571413E+01 -9.860902833884E+01 1.562005074035E+02
 -1.700471146351E-01 -1.456549237493E+01 -1.184215751635E+00 -1.219347381377E+03 4.330057676977E+02 -3.471037728034E+01 -9.109844468751E-01 -2.161927498821E+00 -1.138683536935E-01 1.325747813028E+00 -1.222630143252E+00 1.949881477132E-01 1.052642865407E+00 -5.500420407314E+00 -7.365356189213E-01 4.028355840810E+01 1.610535892389E+01 3.070063216734E+00 1.365565328881E+00 2.237410570811E-02 -6.754484303371E-02 -2.073738584767E+01 4.077775377307E+01 -3.381178328210E+00 -2.492367013472E+00 6.626970591988E+00 5.599387808572E-01 -9.304105291383E-01 1.564041560912E+00 2.418116984110E-01 2.112474713603E+00 4.486205630157E-01 1.122404276883E-01 1.075806119140E-02 -5.267062604616E+00 2.620095156021E-01 3.512719589284E-01 -1.669269600908E+01 -5.326983226376E-01 -1.141607664735E+03 -3.881510346686E+02 -8.417528910956E-01 -1.277697776886E+00 4.567855064055E+00 3.886736982788E-02 3.394535865931E+01 6.658403393691E-01 1.137055157089E+00 -1.552979292032E+01 -3.217377958679E+01 5.809187903579E-01 2.724217328396E+03
 -2.072236685857E+00 1.578422390424E+01 4.978085130621E-01 4.558313923959E+02 -7.218065989267E+02 3.961983054235E+01 4.025844144640E-01 1.379923520811E+00 -1.439839638213E-01 -1.620745881716E+00 1.994898056122E+00 1.593346292578E-01 -1.305352015212E+00 5.495824766004E+00 5.895284295802E-01 6.745603482608E+01 -1.893374348744E+01 2.330654337071E+00 -9.450370377484E-01 -5.953001713174E-01 -2.538766895595E-01 -3.243204713302E+01 5.276666290541E+01 -3.548987075432E+00 2.368858366140E+00 -6.561352716288E+00 -2.981330700439E-01 1.092076028112E+00 -1.644168533744E+00 -2.482030426560E-01 -1.504428732061E+00 -1.010763541313E+00 -4.807896081081E-01 2.627032055673E-01 5.238851551874E+00 -2.800143736169E-01 1.837401058219E+00 1.717624107608E+01 -8.337354319669E-01 -3.859811984295E+02 -6.639787248081E+02 1.636775700475E+01 1.213880549025E+00 -4.598833917137E+00 1.296506324525E-01 -6.315898411743E+01 -4.535525456348E-01 -1.614250306117E+00 2.896820976028E+01 5.769630231594E+01 -9.841615853066E-01 -2.243588015349E+00 2.803212709706E+03
 3.223600249762E-01 -1.327807214142E+00 4.135870676269E+00 -3.544343481331E+01 4.186443659781E+01 -8.380952413100E+01 4.394588251651E-02 -3.641317430416E-01 1.769013676333E-02 -1.888241976977E-01 4.380710932209E-01 4.588213688710E+00 5.274475686900E-02 -5.224464592778E-01 1.554589646682E-01 -4.393485880468E+00 1.859703005126E+00 9.226043327854E+00 6.667928463645E-01 2.914433917641E-01 8.980106305235E-01 1.941073231007E+00 -4.052442757440E+00 9.626641051732E+00 -5.843748409395E-01 9.500217251906E-01 -4.371774798264E-01 -3.251015027440E-01 -2.943304097535E-01 5.001437349308E-01 4.693267200315E-01 1.304162136419E-01 4.466484670464E+00 -2.322293214378E-01 -2.588700314202E-01 5.958765818316E+00 -8.549336599277E-01 -2.244019102954E+00 -9.181048697137E+00 -1.205786458313E+00 1.640780945532E+01 -8.061364076274E+01 2.752401073071E-02 3.060583187419E-01 -2.614738185225E-01 2.347005164526E+00 1.564119590735E+00 8.734397857677E+00 -1.123660344343E+00 -1.962324182859E+00 9.191554731522E+00 3.996613889777E+01 -1.244497809749E+02 1.927206462693E+02