#BIOSYM hessian 1
@Type: Hessian Update
@Units
 distance: 	A
 energy: 	Kcal/Mol
#header
@natom 68

#label
C1      C2      C3      C4      C5      C6      C7      C8      C9      C10     C11     C12     C13     C14     C15     C16     C17     C18     C19     C20     C21     C22     C23     H24     C25     C26     C27     C28     C29     C30     C31     C32     C33     C34     C35     C36     C37     C38     C39     C40     C41     C42     C43     C44     C45     C46     C47     C48     C49     H50     H51     H52     H53     H54     H55     H56     H57     H58     H59     H60     H61     H62     H63     H64     H65     H66     H67     H68

#element
C  C  C  C  C  C  C  C  C  C  C  C  C  C  C  C  C  C  C  C  C  C  C  H  C  C  C  C  C  C  C  C  C  C  C  C  C  C  C  C  C  C  C  C  C  C  C  C  C  H  H  H  H  H  H  H  H  H  H  H  H  H  H  H  H  H  H  H 

#matrix
204
 2.756629156422E+03
 -2.715094038942E+01 2.801411725214E+03
 7.360364249397E+00 7.779963746185E+00 1.912982221299E+02
 3.938119938179E+01 6.730642517364E+01 1.311879562175E+00 2.805739146938E+03
 3.956479344997E-01 3.250941086122E-01 -5.276462844715E-01 -2.539059568560E+01 2.767114796421E+03
 6.103535742830E-01 -4.794028871935E-01 8.595796165587E+00 -2.408307988923E+01 1.209691625865E+01 1.920119601852E+02
 -2.786884823254E+01 2.086901586692E+01 -1.940297124292E+00 2.539973736980E+00 2.103235366118E+00 -1.509094854999E+00 2.782161745829E+03
 -3.521772205668E+01 4.917131720973E+01 -7.648895156901E-01 1.965029722472E+00 3.029366407364E-01 -1.655042242326E+00 -1.900810662346E+01 2.678425704365E+03
 -2.451262813761E+00 5.379510961195E+00 6.228156458648E+00 -1.924644542920E+00 -4.411629299575E-01 -2.035044962102E+00 -8.473454176919E+01 -1.437341579786E+02 2.355366317909E+02
 3.959163824514E+01 -6.206665212226E+01 1.163880897975E+00 -2.062315690175E+01 3.535487448674E+01 7.222375279523E-01 5.565421529457E+01 8.399226899026E+01 -2.907534339586E+00 2.821049722955E+03
 4.937438365597E+00 7.799916857539E+00 2.056038567367E-01 -3.452303500978E+01 5.826847534846E+01 1.703159590823E+00 2.904759088775E+01 1.709555486688E+01 -8.186704249702E+00 -1.454847462349E+01 2.810276005059E+03
 1.564800432153E-02 -1.210435012242E+00 9.298073011390E+00 1.087496343244E+00 -1.912932324776E-01 9.093111411235E+00 -8.579011590718E-01 -3.814304288414E+00 7.834227776977E+00 -6.626591594140E+01 -3.891167498491E+01 1.991691687899E+02
 -2.027621167655E+00 2.094076354477E-01 7.666483893104E-01 6.543332412205E-02 5.918465104685E-01 6.362068058345E-01 4.427031149803E+01 -8.074006261257E+01 -1.076077157149E+01 -2.170325827839E+01 4.166842804905E+01 1.998328140676E+00 2.582369325071E+03
 -2.655216997611E+00 -1.158989119854E+01 -6.085324596872E-01 2.403924861899E+00 3.473702712964E-01 -1.063922041925E+00 -3.320472977236E+01 -3.033532395818E+01 2.107241849024E+01 -2.134872457480E+01 8.238276374175E+01 2.281287055537E+00 -2.025581913019E+02 2.972028605895E+03
 1.252248284047E+00 -4.656938061147E+00 1.634525546612E+00 2.043366696717E+00 -1.212284608416E+00 1.416154409192E+00 -9.824562143932E+00 -8.280136894913E+00 -3.898067805713E+00 9.034534001632E+00 3.255188496045E+00 1.213653990694E+01 -1.736039784925E+02 -4.522492415105E+01 1.788360246844E+02
 -1.222156373198E+03 4.441567733920E+02 -5.203064279527E+00 -4.622260227540E+02 -5.454778572253E+00 -2.638734999154E-01 1.304651291415E+00 -5.138234305827E-01 2.815104977788E+00 -8.237281075471E-02 -8.994797354929E-01 -9.700126390684E-01 2.202167105400E-01 -5.396268207793E-03 -1.651600051744E+00 2.812973873945E+03
 4.383140217083E+02 -7.327047783765E+02 -2.376673025382E-01 -4.038542331008E+00 -1.422741032596E+03 -7.498279205942E+00 5.446068291128E+00 3.896916003098E+00 -1.537948975268E+00 -2.005917589154E+00 -3.051546585971E+00 9.474374529677E-01 2.997658051294E-01 4.500779084125E+00 2.215539357969E+00 2.343493651512E-01 2.764870791632E+03
 -6.034246889024E+00 2.286965429144E+00 -8.264575673143E+01 2.337556106076E-01 -9.228961807976E+00 -8.051735212018E+01 -1.144498110861E+00 8.609947431244E-02 6.315384049755E+00 7.894867326923E-01 -2.839250564470E-01 -9.094995660584E+00 2.611377136539E-01 8.915191897427E-04 -6.171058156363E-01 1.907111148266E+01 1.710965088365E+01 1.916378900131E+02
 -1.176338195197E+03 -4.061307257488E+02 3.177183188066E+00 -3.919419606005E-01 -5.714865944322E-01 8.233083812364E-01 -1.250154548206E+03 4.459869376226E+02 -1.349137804119E+00 -4.796938445289E+02 -8.094258237978E+00 5.169893527452E+00 6.939346655138E-01 5.301549645729E+00 -3.142555647973E+00 -1.977275103755E+01 -3.310455659239E+01 -8.630996427121E-02 2.797556907442E+03
 -4.094982443828E+02 -6.955055107342E+02 1.255227914600E+00 3.603129088397E-01 4.669037194017E-01 3.955374439675E-01 4.381681073770E+02 -7.483121997373E+02 2.471267674879E+01 -4.336378558171E+00 -1.470728299755E+03 2.814040488845E+01 -6.569517882067E-01 -9.387234114519E+00 5.017527855773E+00 3.462174239300E+01 5.873054358415E+01 -1.038417350269E+00 -3.179649269675E+01 2.788575915478E+03
 3.994289958941E+00 2.734473275570E+00 -8.006864463191E+01 -4.975377637716E-01 -9.382930457379E-01 -8.456119077785E+00 4.277857342267E+00 2.549162896931E+01 -9.014945509454E+01 3.887284437000E+00 2.478859062454E+01 -8.459417935844E+01 1.817620986962E+00 -3.538988179442E+00 -8.751560517150E+00 -4.020367481561E-01 -1.094858874087E+00 8.020106842520E+00 -7.237190605153E+00 -4.808746425466E+01 1.977360221320E+02
 -3.225293264016E-02 -1.417128439573E+00 -4.353634740640E-01 -1.226527362938E+03 -4.237665644389E+02 1.332000452830E+01 -4.097482606442E+00 -4.464721412123E+00 1.431619077398E+00 -1.223360650363E+03 4.411802064110E+02 2.066115413171E+01 1.248381534089E-01 -4.546567997350E+00 -2.521917750984E+00 3.753356098907E+01 2.866501133718E-01 -4.573872239819E-01 4.057956664012E+01 -1.446356950120E+00 -1.037135351054E+00 2.816006304737E+03
 -1.241396766089E+00 -1.182963769070E+00 -3.570874758726E-01 -4.269753291606E+02 -7.108091579349E+02 2.386743384207E+00 -4.571794218345E+00 -1.185424730981E+00 2.776661266100E+00 4.412256395632E+02 -7.359314976141E+02 -5.514692761248E+00 -1.245488819429E+00 -1.972134789378E+00 -4.029179857546E-01 -6.643188584820E+01 7.596153091758E-01 1.619915058603E+00 6.938665984167E+01 -1.715378493292E+00 -7.061468825674E-01 3.816553446663E+00 2.812911696908E+03
 -2.361312969016E-02 -9.138855209365E-02 -8.838184063186E+00 1.341670370990E+01 4.425950695253E+00 -8.285737240588E+01 -7.707892942346E-01 -5.983971640049E-01 5.205526066821E+00 2.174904776132E+01 -3.939719576217E+00 -8.414697284445E+01 -1.111436188301E-02 -3.991222421550E-01 4.966369944735E+00 -5.911886180517E-01 1.429327539502E-01 8.811993041982E+00 -2.327624784846E+00 2.840996191779E-01 8.204569600178E+00 -3.941718623522E+01 5.805060939299E+00 1.965405536585E+02
 1.261449895496E+01 1.448239702422E+01 -7.948794625694E-02 -2.608686860842E+00 -3.628348925517E+00 1.654355887886E+00 -1.187648313265E+03 -3.934365949921E+02 8.849500116781E+01 -1.660005797818E+01 -3.740968135423E+01 2.247326232769E+00 -5.219768169413E+02 4.838633679704E+01 5.386816418239E+01 -1.920604828740E+00 -6.224977082930E+00 6.612162963752E-01 -3.545149949983E+01 -1.350297326103E+01 -2.377354104015E-02 4.169083250805E+00 6.273941992314E+00 2.295866750235E+00 2.398936191395E+03
 1.264612747446E+01 1.505377091114E+01 5.580877606791E-01 -2.450491323517E+00 -4.074252652432E+00 1.120250955382E+00 -4.030850915408E+02 -6.864642306853E+02 3.654099824286E+01 -1.273633399146E+01 -3.632528400180E+01 4.090363752766E-01 3.406265408921E+01 -1.723025295823E+03 3.606949313331E+01 -1.766371765940E+00 -6.668624047700E+00 -2.921226829765E-01 2.508544843333E+01 8.260905477541E+01 -5.778139843503E+00 4.180002754892E+00 6.695583131290E+00 1.343355636626E+00 2.667247865545E+01 2.786741180035E+03
 -4.040637275625E+00 -5.832014378472E+00 6.917684219600E+00 -6.176328090291E-01 1.459012148433E+00 1.693166221556E+00 8.209656684260E+01 3.645365997358E+01 -1.144348387601E+02 7.440538250266E-01 1.097553660910E+01 -7.390552864463E+00 4.840286211838E+01 1.983245568085E+01 -7.079689415350E+01 1.099693867830E+00 1.207620779673E+00 -4.604383692139E-01 2.041520986639E+00 -7.987049623075E+00 8.468828863186E+00 7.949148322880E-02 -2.937882619904E+00 1.971892449134E+00 -2.157223367593E+02 -2.330516764149E+01 3.023108470118E+02
 8.767883910586E-02 -5.849531814865E+00 7.672888060791E-02 1.126240285416E+00 -2.333193332504E-01 -1.358449947286E+00 -1.605921881076E+01 -1.719235598090E+01 1.191630624447E+01 -1.233939940039E+03 -4.256116753496E+02 3.869769670251E+01 -1.278150744839E+03 4.608162720626E+02 6.196897210663E+01 -2.342350326121E-01 1.907695318002E+00 -2.966482538424E-01 4.269487386357E+01 -4.335700196710E+00 -1.977806704995E+00 -2.270158743527E+01 -3.433890378370E+01 9.633619334437E-01 6.632595083258E+01 1.018530544993E+01 -1.027148974380E+01 2.867417520076E+03
 -1.736977693608E+00 -1.270365551889E-01 1.081228182652E+00 3.129462689526E-02 6.002611351374E-01 4.633570966956E-01 -3.617219240510E+00 3.379256114241E-01 -8.130106679504E+00 -4.302035817038E+02 -7.270465904944E+02 1.551758513031E+01 4.679896819024E+02 -8.026539433307E+02 -2.297657242958E+01 1.376359252502E-01 2.319383207619E-01 -6.214901800825E-02 -6.930992895568E+01 -1.302771142156E+00 5.934571992853E+00 3.550416201014E+01 5.925160112018E+01 -2.407453965332E+00 8.872574052398E+01 7.917911397354E+00 -7.295487937372E+00 -5.412146161214E+01 2.886329731974E+03
 6.027884327451E-01 2.533754078189E+00 3.293882817703E+00 2.628537033196E-01 8.717284962557E-01 3.562063843930E+00 1.105067503665E+01 7.796955910569E+00 -9.512196346740E-01 3.767330700550E+01 1.471801959451E+01 -8.833897989232E+01 6.298411362415E+01 -1.480544937345E+01 -8.850004265312E+01 -6.119670506568E-01 -5.854592585320E-01 -3.273864483798E-01 -2.129416808418E+00 1.899064841686E+00 1.070812239398E+01 1.576160449385E+00 -1.709158671817E+00 8.618600030063E+00 -1.924307920119E+01 -6.490862203120E+00 -2.399795517888E+00 -1.159002954889E+02 9.263963117661E+00 1.988058288622E+02
 4.327388029207E-01 4.790809598294E-01 -1.769933396017E-01 -1.187427472935E-01 -1.472387445240E-01 2.400734943386E-01 2.157543944539E+00 7.488998638429E-01 -5.047007415233E-01 -4.819837315425E-01 -1.278247066778E+00 -1.343194557834E-02 1.935471755942E-01 1.158648171213E+00 -1.446807178550E-02 -4.412147115664E-03 -2.166523961804E-01 2.332217206270E-01 -4.415678214066E-01 7.052766666149E-01 1.330739641268E-01 1.268443461951E-01 2.534898363043E-01 3.623001000131E-02 -2.793349381297E+00 -2.485843703851E+00 3.991052827142E-01 4.028124367286E-01 2.682431565197E-01 -2.612173635030E-01 2.808620185928E+03
 -9.682850372319E-01 -1.263485559067E+00 4.123894350261E-01 2.841875899276E-01 2.633101051280E-01 -2.256644034887E-02 -4.908369014380E+00 -2.295337206553E+00 1.265102040696E+00 1.230558226057E+00 3.088550678351E+00 1.916272534121E-02 -6.011440179868E-01 -2.836478730213E+00 -7.901438422862E-02 3.392180150603E-02 6.532472232242E-01 -6.341348782881E-02 8.873614665540E-01 -1.594636842466E+00 4.222168501968E-01 -3.416667349500E-01 -6.351506917190E-01 -2.717196565351E-01 6.463966913547E+00 6.422006705215E+00 -1.449293521669E+00 -1.062285124400E+00 -5.756505810709E-01 3.055541892433E-01 2.052416187055E+00 2.799921519343E+03
 -9.495486455203E-02 1.237405347558E-01 -1.224475817592E-01 -1.428449143600E-02 1.763813041192E-02 -1.476539998712E-01 1.594582213956E-01 4.346910184349E-01 8.486804667425E-01 -1.573290446588E-01 -1.072707420303E-01 -9.352226427077E-02 -1.523656278418E-01 1.625072780504E-01 -6.805268223598E-01 -1.776076188702E-02 -1.326655472806E-01 4.476947276440E+00 -3.775637805136E-02 -4.654779255682E-02 -2.859997115177E-01 9.426436940785E-03 5.813995101629E-02 -5.345324984429E-03 -4.248703592692E-01 -5.454280129343E-01 -4.353101807473E-01 2.300575419807E-01 -2.126299233977E-01 5.240147827214E-01 1.388789401711E+01 5.478883718553E+01 1.948164481551E+02
 2.147325431486E-01 -8.849171218444E-02 -3.483550569240E-01 3.535165445939E-02 -9.806134194598E-02 -1.173531120496E-01 -1.836534803968E-01 -2.298706672877E-01 6.024186277951E-01 2.420687986465E-01 -1.926868928898E-01 -1.382825220431E-01 3.223411939310E-01 -7.485178984013E-01 -5.515304393523E-01 3.937733999738E-02 -5.034669893859E-02 -1.406912099526E-01 1.993242408091E-01 -4.882291094225E-02 -2.729791331622E-01 -9.579490136688E-02 2.228832837400E-01 9.552354970534E-02 -5.885038276558E-01 -7.029495707376E-01 -4.559355133080E-01 -5.543955843754E-01 3.802889229198E-01 4.935676898202E-01 4.142177867983E+01 7.181882524677E+01 1.886253546954E+00 2.785403106106E+03
 -6.002770403650E-01 -6.137557903636E-01 4.823406886242E-02 1.224607363194E-01 1.929168079705E-01 6.986109319347E-02 -2.672210079841E+00 -9.752084328715E-01 3.027719794197E-01 5.865221265282E-01 1.684683486371E+00 5.595692825118E-02 -2.953209021658E-01 -1.375605920098E+00 1.656789316039E-01 6.933692478396E-02 2.743475486901E-01 -4.666879249751E-02 5.578387008130E-01 -9.324906526676E-01 4.104774260484E-02 -1.659043846684E-01 -3.417621117241E-01 -4.626547604168E-02 3.552861097519E+00 3.324789496370E+00 -1.021370312667E+00 -4.378469805563E-01 -3.897448255040E-01 3.618984432588E-01 -8.301370082007E-01 -1.906049578243E+00 -1.693710363732E-01 2.792731777972E+02 2.859465782910E+03
 1.155190833124E-01 -6.672136696965E-01 6.614256304356E-01 9.902806277986E-02 -2.816053630387E-01 6.470354768204E-01 -1.415882295310E+00 -2.670216556148E+00 -5.634474443942E+00 9.004609127573E-01 7.946133014180E-01 6.760756312877E-01 1.573097645396E+00 -1.242405098258E+00 4.046714144862E+00 -1.294100325730E-01 2.052820102867E-01 3.867332497917E-02 2.586299159650E-01 2.975595627473E-01 3.487083210262E-01 -3.213215495539E-01 -2.150323560289E-01 2.055949978965E-01 2.894812461065E+00 1.442788079466E+00 6.161114024656E+00 -1.802411611707E+00 8.776210866636E-01 -3.581310630226E+00 2.627119068483E-01 1.613087401184E-01 1.050912876701E+01 1.414298848158E+01 6.241335241445E+01 1.525237203704E+02
 -2.067309620890E+01 -3.435511857680E+01 -9.427692964069E-01 3.856359403024E+01 -3.945649125945E-02 3.964747170548E-01 -7.952209061193E-01 6.044342699460E-01 -1.356726622910E+00 -2.546678697763E-01 7.390646013329E-01 3.799333470063E-01 -6.734430657789E-01 5.385505619103E-01 6.649931539018E-01 -1.248045523682E+03 -4.352942142185E+02 -1.301668024503E+01 3.090852142203E-01 -3.838095568458E-01 7.060673245460E-01 7.904226608636E-02 -3.152436533452E-01 -2.496605936309E-01 1.723977504730E+00 2.132480672590E+00 -6.126287629363E-01 6.868643920935E-01 -5.696372144216E-01 -1.493625734615E-01 -1.923554618564E+01 3.371326284460E+01 1.032989496504E-01 1.082479560386E-01 -1.152157487332E-01 9.676150362839E-02 2.773830296120E+03
 3.304160472973E+01 5.705455526643E+01 1.599957271100E+00 -6.700181842560E+01 1.069471049098E+00 -1.344648394255E+00 -1.358508751032E+01 -5.520801715753E+00 3.217878223443E+00 3.303634544562E+00 7.954789524265E+00 -7.901337192375E-02 -1.397261442941E+00 -7.809812098420E+00 -7.231562142918E-01 -4.396817489867E+02 -7.226911118495E+02 -1.009030582805E+01 2.720418382101E+00 -4.185586274489E+00 8.140959167762E-02 -8.761639175861E-01 -1.515262999799E+00 -6.016213742758E-01 1.703580802495E+01 1.686100731495E+01 -4.551252470070E+00 -2.900918419311E+00 -1.319580470049E+00 1.407574179879E+00 -3.189448357794E+01 5.541370608273E+01 6.314185532312E-01 1.146358894782E-01 -7.748245031418E-01 -2.019584040701E-02 1.945357627547E+01 2.794742154736E+03
 -5.892003115568E-01 -3.309882483713E-02 1.014872746909E+01 -4.463461142450E-01 -2.553811796175E-01 9.239410191611E+00 -7.975093955467E-01 -1.104054209180E+00 -2.280741076316E+00 5.285732474593E-01 1.330919982420E-01 1.772609777698E-01 6.515456859025E-01 -6.464980721630E-01 1.397563896371E+00 -1.281747959826E+01 -1.086716656087E+01 -8.311098132499E+01 4.839670521853E-02 2.880511765418E-02 4.859454714581E+00 4.071382958177E-02 7.417331948458E-02 4.484089845913E+00 8.872068420425E-01 5.656193145775E-01 1.895428059196E+00 -1.068414230989E+00 3.888878723937E-01 -9.252163140376E-01 -8.024554386135E-01 1.546769159894E+00 8.608502280424E+00 -3.175416982210E-01 -1.178000311877E-01 5.242630278261E-01 1.576636552225E+01 3.916157424580E+01 1.913853485042E+02
 -1.490420310715E-01 -2.602623841076E-01 -1.615782875602E-01 -1.913835359093E+01 -3.184547701105E+01 -1.198154754330E-01 -1.803435911600E+00 -2.538792036639E-01 -2.037891253240E-01 3.917191871658E-01 6.664082508544E-01 1.148751282734E-01 7.752322579236E-02 -9.472413351719E-01 4.165946443083E-01 1.975364284261E-01 -8.959093793800E-02 -2.972005449322E-01 6.001560412634E-01 -5.478396236228E-01 -2.747676508097E-01 -8.168352685751E-02 -2.486500702802E-02 2.618856907478E-01 2.094597220695E+00 1.782606119152E+00 -1.741401878132E+00 -4.284688656698E-01 1.570048730362E-01 6.265782803715E-01 3.971697888300E+01 -6.940601769821E+01 -1.318322012151E+00 -2.311258375473E+01 4.031704744502E+01 6.606638308985E-01 3.976393960497E+01 6.657668423229E+01 1.710094534725E+00 2.778811288954E+03
 -8.800636367246E-01 -1.232438783392E+00 -7.169600977359E-01 3.441035656826E+01 5.671167350839E+01 4.806759716023E-01 -5.151873149153E+00 -2.236230697137E+00 2.284214599936E+00 1.362829668605E+00 2.956109639832E+00 6.829516145533E-02 -5.033948289022E-01 -3.465058015794E+00 -1.235420550662E+00 -1.153371657710E-01 3.894054880854E-01 -3.928989625838E-01 1.150762891784E+00 -1.775657798833E+00 -4.107858789361E-01 -4.011237701673E-01 -3.656272707205E-01 -3.316316914250E-02 6.030605831008E+00 5.611125267549E+00 -2.240860781388E+00 -1.397118055168E+00 -4.273249624014E-01 1.651167459918E+00 1.337450287298E-01 -4.708111726523E-01 -1.037560498778E-01 -4.215068733106E+01 7.378592212963E+01 8.963067585627E-01 -7.648037077622E-02 -1.266951163771E+00 -1.794020250424E-01 -3.470985648094E+01 2.760404483844E+03
 -2.606764428707E-01 1.508047408892E-01 -5.217641842206E-01 -1.537562934475E-01 1.455790873039E+00 7.663153732070E+00 3.784175898736E-01 1.329014278586E+00 4.256539746515E+00 -4.929008138531E-01 -1.365774420643E-01 -4.882861095410E-01 -5.953861555102E-01 1.985854774755E-01 -3.233218413728E+00 7.322845289071E-01 5.472618452590E-01 -8.857868597849E+00 1.015546978926E-01 -2.657824018950E-01 -8.591919634926E-01 -1.196815474852E-01 -5.182935628729E-02 4.315084597974E+00 -1.331029032302E+00 -1.624280125885E+00 -1.673248788346E+00 4.853128795810E-01 -7.200165092676E-01 2.152702915837E+00 5.456719418149E-01 -8.148029712118E-01 9.837396321339E+00 -1.002049017733E+00 1.909015175035E+00 1.120374258953E+01 2.776003380636E-01 -2.824823108926E-01 8.500451590822E+00 -4.795335377769E+00 4.515937528301E+01 1.870314293417E+02
 -3.093042696143E-01 -1.136964009542E-01 2.536962506590E-01 1.620850975141E-02 1.177909851319E-01 -6.514964257553E-02 -7.405992673425E-01 6.913564504937E-04 -1.182270732557E-01 3.773982637439E-03 6.154766656826E-01 5.532136281885E-02 -3.640562530317E-01 2.162247816224E-02 2.415902413721E-01 -1.624652050116E-03 1.251452450027E-01 5.174449266539E-02 9.037011143542E-02 -2.903728398998E-01 1.768271258118E-01 2.118304091593E-02 -2.326636599776E-01 -8.488534657096E-02 1.399304285588E+00 1.464099776170E+00 -1.898619614825E-01 2.544867607811E-01 -3.765140036387E-01 2.948775334295E-03 -1.234561502501E+03 4.330733651805E+02 2.899290260993E+00 -5.072177900192E+02 -1.574450049479E+01 -2.487064451803E+00 -7.226851922381E-02 -3.321286652683E-01 3.830214220257E-01 -3.014647488764E-02 -1.591293419792E-01 -2.044586516475E-01 2.843417416378E+03
 1.264588507997E+00 1.586765022846E+00 -3.002226189267E-01 -3.233389497762E-01 -3.324496628801E-01 -4.398831063257E-02 6.596949202811E+00 2.683266852324E+00 -1.500392559641E+00 -1.591369475929E+00 -3.963705422117E+00 -4.635768558036E-02 6.833922518665E-01 3.778467654144E+00 3.767622215726E-02 -1.679196971775E-01 -7.598009306296E-01 -1.188031960867E-01 -1.407370069308E+00 2.198956125262E+00 -3.742315199591E-01 4.472657874070E-01 7.505233543480E-01 2.308974933537E-01 -8.490522736448E+00 -8.227541555273E+00 2.605118977673E+00 1.422240520152E+00 6.616865741567E-01 -8.614366122614E-01 4.348800142097E+02 -7.296964306316E+02 -1.150632417945E+01 -2.574809169564E+01 -1.540115421691E+03 -3.351155375084E+01 2.000578810579E-01 1.870337346791E+00 -2.245801947873E-01 7.405253386794E-02 7.546098545666E-01 3.139972986740E-02 2.971810517814E+01 2.890542904615E+03
 -1.081838080619E-01 1.465326557454E-01 -1.777672617986E-01 3.097075733785E-02 7.367545800877E-02 -4.636397188675E-02 7.467907945860E-02 6.850170947943E-01 1.109457190055E+00 -8.674224175675E-02 -4.131372364747E-02 -2.901727686229E-01 -4.621970113697E-01 1.955417419774E-01 -8.010994181163E-01 6.426259450687E-02 -7.720442402501E-02 2.159415036276E-03 -7.691647923353E-03 -2.717507081085E-01 4.716963595027E-01 3.788991895769E-02 3.986047916299E-02 -2.265943836778E-01 -5.375930452310E-01 2.342676307839E-01 -2.169121107703E+00 3.306441177141E-01 -1.748387868997E-01 8.298930871359E-01 2.941271238890E+00 -1.111519420561E+01 -8.531760329108E+01 -2.547734654051E+00 -3.363051359512E+01 -7.808859883878E+01 -1.508860718131E-01 -1.121144172427E-01 4.374964581274E+00 1.496815061809E-01 1.658844989326E-01 -1.030549428759E+01 1.601100762284E+01 6.141323206025E+01 1.858433000912E+02
 -6.788032632978E-01 -5.890134334768E-01 6.711841063643E-01 5.041897475946E-02 1.702528913590E-01 -5.599688355083E-01 -2.898681534680E+00 -6.383724788489E-01 8.292346236122E-01 4.685021713677E-01 1.797535742291E+00 -8.188741507941E-02 -6.339595762226E-01 -1.066601800593E+00 5.414478669600E-02 -1.956369337726E+01 3.510324017403E+01 5.591030093604E-01 4.311079467640E-01 -9.514041512866E-01 1.345432784449E-01 -9.365913142840E-02 -4.862687660418E-01 -2.441569830042E-01 4.182826455205E+00 4.066329664831E+00 -8.553105855334E-01 -7.398768271120E-02 -6.186374030380E-01 1.586000234066E-02 -1.220500124533E+03 -4.253551891014E+02 -1.392138791231E+01 1.629662640828E-01 -3.062250694209E-01 1.644883214861E-01 -1.171306768609E+03 4.208465352438E+02 2.123327110439E-01 -4.723494383137E+02 -7.379105882976E+00 -1.556640147681E+00 -1.975938049354E+01 -3.340401266081E+01 -8.849387321214E-01 2.748566803381E+03
 1.786417545366E+00 2.185800132884E+00 -7.429874809749E-02 -6.043666040812E-01 -4.693138672189E-01 5.671307900730E-01 8.854278114974E+00 3.605185234278E+00 -3.188657331670E+00 -2.063370150572E+00 -5.376424042580E+00 -1.029783548444E-01 1.247991384256E+00 5.001046180174E+00 1.066789759644E+00 -3.293972792762E+01 5.700173133530E+01 3.210219570533E-01 -1.707697378374E+00 2.862101099898E+00 -2.078772866604E-01 5.413844561227E-01 1.048216294939E+00 3.847340458731E-01 -1.159364648427E+01 -1.135527206895E+01 3.231844670174E+00 1.667036673268E+00 1.141120156052E+00 -1.368642488397E+00 -4.287639233472E+02 -7.117767098682E+02 -1.473709040637E+01 -2.438377444859E-01 4.556981475502E-01 5.736213958129E-01 4.238177011013E+02 -7.109052406386E+02 -8.160187528001E+00 2.016473461728E+00 -1.497317451859E+03 -2.582898341999E+01 3.474432502338E+01 5.818490976041E+01 1.045175897089E+00 4.308533198369E+00 2.804892462527E+03
 -2.096715359249E-01 -2.745048567052E-01 4.833042343722E+00 5.462403812992E-01 -4.127841626894E-01 -8.300649770901E+00 -5.130918433306E-01 -1.322881834558E+00 -2.675662960050E+00 6.592387299839E-01 3.037855334316E-01 1.408597583188E-01 9.301822630901E-01 -4.689984843233E-01 2.254331399760E+00 -9.002998700911E-01 5.426940324535E-01 9.195663834312E+00 -8.680094493853E-02 -2.090124639375E-02 8.343864635141E-01 -3.682137463058E-01 -2.212121565481E-02 -6.016618033448E-02 8.073248038232E-01 4.436407717478E-01 2.052195330946E+00 -1.054254013132E+00 6.377945413029E-01 -2.392386265779E+00 -1.410468610651E+01 -1.438385941607E+01 -8.279880043774E+01 -1.769258087585E-01 7.302616483212E-02 -9.253716658083E+00 8.739737981537E-01 -6.653233742148E+00 -8.002642582373E+01 -8.803760982923E-01 -2.689385126051E+01 -8.391743947688E+01 6.364441539744E-01 6.285478726330E-01 9.733739638999E+00 1.488526002937E+01 4.705791949567E+01 1.925364002232E+02
 3.404431752657E-01 3.629686913223E-01 1.857860335145E-01 -1.019921710179E-01 -1.010001498274E-01 1.408991028250E-01 1.868682519977E+00 5.000621467058E-01 3.898887610826E-01 -4.489668644584E-01 -1.003741237283E+00 1.154962522278E-02 1.327017163351E-01 9.406093375761E-01 -3.239355379390E-01 -6.089514114095E-02 -1.270673919224E-01 2.061784056397E-01 -4.348479372913E-01 6.504401543968E-01 -5.434141582094E-02 1.106020434336E-01 1.639821756591E-01 -6.948644737674E-03 -2.293607821528E+00 -2.246217353889E+00 1.294750111202E+00 3.721852342551E-01 1.242049046999E-01 -4.774113790614E-01 -6.418011996799E-02 1.480042851599E-01 1.124966452362E-01 -1.507752793766E+03 -5.301719746754E+02 -1.579087983206E+01 3.352371281296E-02 4.416615453541E-01 4.836922194388E-02 -1.277465507125E+03 4.338000840348E+02 8.544337211991E+00 4.908660323562E+01 -1.371064814888E+00 4.666702326656E-02 3.917406460868E+01 -3.164004283454E-01 -2.746940134769E-02 3.075732728754E+03
 -5.694122387855E-01 -2.386973829848E-01 2.957304274100E-01 4.394823154071E-02 1.972118402382E-01 3.140065217820E-03 -1.541844176011E+00 -1.283411180444E-01 -2.296947782901E-01 1.131325629480E-01 1.154519760050E+00 1.361155965940E-01 -6.101068988775E-01 -3.514117910895E-02 5.855437453192E-01 3.088608470849E-02 2.079510991129E-01 9.026853467889E-02 2.027680971729E-01 -5.794917089375E-01 3.828761290591E-01 2.508578239161E-02 -4.162601717263E-01 -1.241653167215E-01 2.776212232477E+00 2.991159574013E+00 -1.064780559457E+00 3.716764692742E-01 -5.452280144450E-01 -7.920769451758E-02 1.164446569750E-01 -2.821361827521E-01 1.060574976981E-01 -5.400681696577E+02 -8.686718015317E+02 -1.955527246028E+01 -1.678042937914E-01 -5.718167329656E-01 2.105574530829E-01 4.187367690253E+02 -7.246312364528E+02 -1.288408238499E+01 -8.597901241107E+01 2.221960568592E+00 -3.349943112658E-01 7.176034752928E+01 4.706736799828E-01 7.830049910009E-02 9.316103075809E+01 2.539571516246E+03
 -1.779609435296E-01 -7.484961978987E-01 4.801923154723E-01 6.992237719405E-02 -2.608119441402E-01 5.003246872547E+00 -2.214082347404E+00 -2.088604544014E+00 -3.870392939425E+00 8.528750952935E-01 1.272303663837E+00 4.311002827131E-01 5.377789469633E-01 -1.476828695536E+00 2.756033162670E+00 -3.126459559490E-02 3.862386422610E-01 -1.866956889082E-01 6.021035842274E-01 -3.105111525541E-01 7.888018972983E-01 -1.970807159723E-01 -3.080575643936E-01 -2.416374176195E-02 3.189228630802E+00 3.226486164212E+00 1.693700169320E+00 -1.315722988849E+00 4.533129138424E-01 -1.337981969865E+00 -8.266873812731E-02 6.425501918161E-02 -1.060228902214E+01 -1.586616756167E+01 -1.963467478813E+01 -6.968629924019E+01 1.089639882224E-01 -5.276443561066E-01 4.951620634594E+00 7.608161775102E+00 -1.248387213032E+01 -7.734900194517E+01 -1.922773329925E+00 2.459747314387E-01 1.071586050747E+01 1.296453510974E+00 1.029827837196E-01 1.043455836860E+01 8.154990151666E+00 5.347311932117E+01 1.528334265377E+02
 -6.376587640493E-01 -1.439494126686E+00 -3.427437441084E-01 -1.236512249559E+03 4.503167749053E+02 9.765010008481E+00 -4.537991895146E+00 -3.115905794549E+00 3.557099933000E+00 1.399769663071E+00 2.821618628113E+00 3.159995550239E-01 -8.257256602220E-02 -3.994970374532E+00 -2.067258537165E+00 4.010678850869E+01 3.386648027263E-01 -3.410653732445E-01 1.079673968337E+00 -1.366524278916E+00 -5.773154969744E-01 -2.074205170255E+01 3.585058048999E+01 7.212595935796E-01 5.525016617586E+00 4.537338205070E+00 1.632170808129E+00 -1.979528308639E+00 -2.460480638828E-01 7.786682606139E-01 1.252752235861E-01 -4.606746383134E-01 1.887922601832E-01 -8.896481602296E-02 -2.136783598432E-01 -2.370506611401E-01 1.243124841365E-01 -1.174178642483E+00 -5.289784576475E-02 -1.145268400338E+03 -3.945263158640E+02 -2.485792378721E+00 -8.527835059300E-03 6.100448502995E-01 -9.383097500394E-02 3.689878134574E+01 6.676455459490E-01 -3.812450298198E-01 -1.759755882461E+01 -3.278867060526E+01 -7.450731478497E-01 2.744700200095E+03
 9.270383401511E-01 8.067672931034E-01 7.152337677438E-01 4.591471130086E+02 -7.481402064179E+02 -8.050479787867E+00 4.177452045470E+00 7.335850718569E-01 -7.067517545851E-01 -8.570137861374E-01 -2.510949860350E+00 -2.868199559796E-01 7.587171865651E-01 1.942676620992E+00 1.838977593746E-01 6.696040027953E+01 -5.700729245283E-01 -8.519788801761E-02 -1.126908438761E+00 1.565199677930E+00 2.674321129361E-01 -3.350450922981E+01 6.057482201328E+01 -3.206262264316E-01 -5.305128510231E+00 -5.158962439721E+00 1.710381016555E+00 4.905191373429E-01 4.786655268438E-01 -1.219434384498E+00 -1.822981218933E-01 4.096413899413E-01 -7.938293477101E-02 6.482515238079E-03 2.662702451279E-01 -2.680814369636E-02 1.490070892827E-01 9.919040967793E-01 -6.439744632760E-02 -3.910939818491E+02 -6.729351179324E+02 -8.571252955911E+00 8.159480406621E-02 -5.790409468320E-01 5.787613753553E-02 -6.515662370047E+01 -6.833079019480E-01 5.185778865155E-01 3.125028816252E+01 5.794308868629E+01 7.889965846104E-01 -1.049442876530E+01 2.812628116789E+03
 -6.594611364410E-02 -4.876988432748E-01 4.512716257263E+00 1.010296753478E+01 -6.698340418147E+00 -8.342965338505E+01 -7.186000054926E-01 1.578955432319E-01 2.255884354276E+00 -4.883397908187E-01 4.962076275259E-01 4.651504151023E+00 -8.041385649477E-01 7.915128758327E-02 -9.893115318985E-01 -2.185678776221E-01 4.136506494098E-02 9.058696285420E+00 1.628630895482E-01 1.677777985797E-02 -4.144693098105E-01 5.352311732412E-01 -1.017485541187E+00 9.668447825813E+00 9.931376654120E-01 1.246947888138E+00 -2.975215583141E+00 7.847535378443E-01 -6.811517094303E-01 9.902096559096E-01 -3.299450035721E-01 -4.946529225612E-01 4.379059446597E+00 4.612368244928E-01 -4.233490199901E-01 5.039857322770E+00 -3.286852364741E-02 6.497752264767E-02 -9.088416785254E+00 -2.855442027650E+00 -7.048168121290E+00 -8.054065391597E+01 -1.502097022423E-01 6.231175893033E-01 -8.420613745592E-03 -1.130850475620E+00 -1.103722547468E-01 7.912100415220E+00 1.185948006695E-01 4.293218224456E-01 9.230863490449E+00 -8.210333952068E+00 2.990960769676E+01 1.873882016335E+02