#BIOSYM hessian 1
@Type: Hessian Update
@Units
 distance: 	A
 energy: 	Kcal/Mol
#header
@natom 68

#label
C1      C2      C3      C4      C5      C6      C7      C8      C9      C10     C11     C12     C13     C14     C15     C16     C17     C18     C19     C20     C21     C22     C23     H24     C25     C26     C27     C28     C29     C30     C31     C32     C33     C34     C35     C36     C37     C38     C39     C40     C41     C42     C43     C44     C45     C46     C47     C48     C49     H50     H51     H52     H53     H54     H55     H56     H57     H58     H59     H60     H61     H62     H63     H64     H65     H66     H67     H68

#element
C  C  C  C  C  C  C  C  C  C  C  C  C  C  C  C  C  C  C  C  C  C  C  H  C  C  C  C  C  C  C  C  C  C  C  C  C  C  C  C  C  C  C  C  C  C  C  C  C  H  H  H  H  H  H  H  H  H  H  H  H  H  H  H  H  H  H  H 

#matrix
204
 2.780997579493E+03
 -2.509604162062E+01 2.819215548396E+03
 3.173114412736E+01 1.046654700955E+01 1.945556981143E+02
 3.813315566586E+01 6.850057365853E+01 2.473436364455E+00 2.779670230673E+03
 1.702532966912E-01 -1.377202970446E+00 -9.982930637521E-01 -2.389267769016E+01 2.762495886223E+03
 5.268683218182E-01 6.904524055247E-01 1.039514405806E+01 5.301960889721E+01 8.416774706845E+00 1.953486569760E+02
 -2.098371261293E+01 3.494972182906E+01 4.384828878422E-01 -7.363082751910E+00 -5.088920092703E-01 3.579343025741E-01 2.794462163159E+03
 -3.601473421359E+01 5.847400867591E+01 -1.724299149826E-02 -6.618028440716E+00 1.695955660324E+00 5.158136425303E-01 -3.728909959369E+01 2.821165499135E+03
 -7.715997528578E-01 1.341382458228E+00 5.699409737755E+00 -7.144220962561E+00 3.960217902701E+00 -5.849534683908E+00 2.185118237052E+01 2.824927837827E+01 2.108540707619E+02
 3.568674388310E+01 -6.802050475832E+01 9.215205617297E-01 -3.438322329229E+01 3.807953221837E+01 2.381993692478E+00 3.290112678789E+01 5.512465989839E+01 -3.837206779644E+00 2.767088825385E+03
 8.785409367997E-01 -3.691649488365E-01 -5.219118385444E-01 -3.150950572785E+01 5.731945694707E+01 -1.146885971932E+00 1.530132359049E-01 3.458531225927E+00 2.547511982222E+00 -2.390260213733E+01 2.824090493269E+03
 2.319385365391E-01 -6.597556165540E-01 8.670724543343E+00 -8.171819493017E-01 1.980927669428E+00 7.892528199591E+00 1.912518753866E-01 2.105748744334E+00 1.124142434799E+01 4.463592852785E+01 2.764617069966E+01 1.998692963131E+02
 1.545072585018E+00 1.050748157369E+00 -2.621281662681E-01 -1.704171867514E+00 3.519583599321E-04 -7.756958944677E-01 4.294603450713E+01 -7.023433539146E+01 -1.706559053073E-01 -1.824938770692E+01 3.608821229420E+01 6.253142378287E-01 2.635469311281E+03
 6.699788220401E-01 7.497011059472E-01 -1.790565083936E-01 -2.087829293883E+00 1.785536638874E-01 -3.817859808510E-01 -2.715803975547E-01 2.098658842129E+00 -6.980585344716E-02 -3.562490247647E+01 6.297309394568E+01 9.101382399135E-01 -2.309798456301E+02 2.908596839770E+03
 -1.046829986730E+00 -8.205660065698E-01 -3.896306037275E+00 -2.462142418016E+00 1.537912318567E+00 -6.787738149686E+00 1.257132902338E-01 -5.615496810368E+00 2.938885234357E+01 -7.025486674426E+00 4.966800872652E+00 1.513270847268E+01 2.740475806855E+01 4.368672401978E+01 1.841906630987E+02
 -1.229511063458E+03 4.477675564798E+02 -1.355824210129E+01 -4.596145873688E+02 -7.719748413742E+00 -6.764849568228E+00 1.070799526948E+00 1.584750568537E+00 1.733331356727E+00 2.671352746140E+00 -1.011986818406E+00 1.591050789935E-01 -3.164701903285E-01 1.407687889418E-01 1.649971927455E+00 2.818410008121E+03
 4.425740652906E+02 -7.404206749423E+02 3.600334049482E+00 -6.202824937806E+00 -1.432133034250E+03 -4.651771521741E+00 5.324969855209E-01 1.901303940930E-01 -1.583302743749E+00 7.947288008610E-02 7.959340366175E-01 -2.663688760934E-01 -4.530296163625E-01 -3.489650852938E-01 2.989632068554E-01 -2.197440031022E+00 2.781224908404E+03
 -1.304747677133E+01 3.308370884749E+00 -8.423063006790E+01 -8.253058323146E+00 -4.533368183401E+00 -8.187124906242E+01 -2.278290145025E-01 -2.206717586531E-01 7.610151185034E+00 -8.262559981648E-01 3.875221337939E-01 -8.043261475652E+00 1.873418024512E-01 7.535370276595E-03 3.028326803270E+00 3.600420898482E+01 8.952852948910E+00 1.929827992350E+02
 -1.192854571606E+03 -4.119694184411E+02 -1.559623222304E+01 1.082701156678E+00 7.678274012759E-01 -1.126070926434E+00 -1.256334252344E+03 4.523652217285E+02 -3.801457965496E+00 -4.787587030280E+02 -7.406618003922E+00 -4.319054195328E+00 1.779132159497E-01 9.782698402571E-01 6.418580414696E-01 -1.899352132024E+01 -3.375894902371E+01 4.680779302455E-02 2.813008579330E+03
 -4.116939748555E+02 -7.016957574315E+02 -8.899173148120E+00 -3.011912034794E+00 1.758919758228E+00 5.019882351143E-01 4.535336935742E+02 -7.484339230098E+02 -4.079394680139E+00 -1.418946552055E+01 -1.510504796741E+03 -1.561374235850E+01 2.193786446259E-01 -1.112502599868E+00 2.414593065610E-01 3.498028791844E+01 5.795223379216E+01 4.141160699559E-01 -3.331804341115E+01 2.843876379770E+03
 -1.525853333280E+01 -8.784850615540E+00 -8.051866885745E+01 2.229024927096E+00 -7.441977544467E-01 -7.348057140933E+00 -5.814063685104E+00 -3.057571306627E+00 -8.873547927483E+01 -4.210293669481E+00 -1.677287797737E+01 -8.518853595834E+01 3.026929188687E-01 1.258340303892E-01 -1.513276856588E+01 -9.677580327666E-01 -7.885322397291E-02 7.794641019235E+00 2.480373478374E+01 2.731852109317E+01 1.968549982732E+02
 1.991168605033E+00 -6.147584779139E-01 -1.905924907882E+00 -1.204904425155E+03 -4.197414576772E+02 -2.701557390554E+01 9.405200677518E+00 1.385108327586E+01 6.848812293143E+00 -1.203775102827E+03 4.377712043078E+02 -1.616562992131E+01 -1.800257599501E+00 -9.086484238528E-02 5.482814527709E+00 3.525288381837E+01 -1.549671793081E-01 2.310305348543E+00 3.978636416875E+01 2.329387863737E+00 -1.601447810286E+00 2.771746405902E+03
 4.499221631023E-01 1.654771568337E+00 -8.226289236231E-02 -4.149912918847E+02 -7.118957996269E+02 -1.205108553884E+01 6.520346391748E+00 4.186439907259E+00 -2.871513597243E-02 4.451136927685E+02 -7.265116706315E+02 2.001778617761E+00 -2.263082231000E+00 -9.216688051427E-01 1.531784546712E+00 -6.713339752874E+01 -6.545605343384E-01 -1.191914674358E+00 6.817672180041E+01 -2.760815327424E+00 8.404502512887E-01 -9.891236779549E+00 2.799024353364E+03
 1.854673681461E-01 1.165361615018E-01 -1.047123846622E+01 -2.625263521101E+01 -9.908790309243E+00 -8.639297103266E+01 -4.051785350617E-01 -3.006858839753E-01 9.703055886521E+00 -1.783400268957E+01 2.806586345235E+00 -8.249687579599E+01 1.240029782802E-01 -1.507903876051E-01 1.198306965474E+01 1.017741057334E+00 -5.548979466211E-01 1.014305124280E+01 2.526284612541E+00 -2.919291179791E-01 7.505316711457E+00 4.852043357191E+01 1.998427112278E+01 1.965010856272E+02
 4.088985981912E+00 1.073269697109E+00 -2.972287108888E+00 2.492137790809E+01 1.585683886827E+00 -4.591966834903E+00 -1.174862098045E+03 -3.859869640949E+02 -2.139293861483E+00 3.344692885489E+01 -9.310968942138E-01 1.163547530453E+00 -5.245065080520E+02 1.630909107602E+01 4.531566224429E+00 -2.574508787851E+00 -2.646131586162E+00 2.367423269591E+00 -2.366618472118E+01 -3.256967477873E+01 -4.745210858948E+00 -3.236434100001E+01 -1.996241066450E+01 3.883658251759E+00 2.724362712517E+03
 -2.348085499862E+00 -1.413100084426E+00 2.952293002449E-01 -4.520102347757E+00 -1.776935965186E+00 1.563575749123E+00 -4.225854836080E+02 -7.291476179832E+02 -1.404523984019E+01 -8.196469386482E+00 -5.191470034060E-01 -1.904133942102E+00 1.943384893295E+01 -1.635696363322E+03 -3.166456739989E+01 1.204468933553E+00 9.273109659474E-01 -7.632247910229E-01 3.682253596248E+01 6.150989657456E+01 1.282869553438E+00 8.400314703386E+00 8.594672215954E+00 -8.036762563653E-01 -3.206918609679E+01 2.872931347097E+03
 4.730356562395E-02 -1.634412824020E+00 4.381867577287E+00 5.057038625678E+00 -3.827336799061E+00 4.649324023517E+00 -1.499659192206E+01 -2.008848645612E+01 -9.313128003994E+01 4.632906182034E+00 -1.506401795304E+00 -1.158444516370E+01 -9.201326898918E+00 -2.567566657229E+01 -9.760833621331E+01 -1.138776327928E+00 1.319980904233E+00 -1.813216732148E+00 -1.777548648043E+00 4.301927764845E+00 9.558562321700E+00 -4.156294878293E+00 1.475495054308E+00 -2.832801090954E+00 -7.641777707314E+00 3.595424555187E+01 2.649802030880E+02
 -4.397433481361E-01 -1.292791350465E+00 6.898118484046E-01 1.206040800320E+01 -6.130270692814E-03 1.297430856481E+00 4.425183574896E+00 2.946321972994E+00 -1.404546253581E+00 -1.199595075739E+03 -4.079356412207E+02 -2.217312180572E+01 -1.326725346382E+03 5.005924189278E+02 -1.448437599321E+01 -1.905990756123E+00 3.300855860183E-01 -1.384966485387E-01 3.787413194803E+01 1.045642723750E+00 5.062317346353E-01 -2.171027440889E+01 -3.261784336411E+01 -1.415788174426E+00 2.965529520631E+01 1.982963554193E+00 6.753272139308E+00 2.801936489978E+03
 4.974154305712E+00 1.413408035466E+00 -2.696496225464E+00 2.452381856940E+01 2.494044658039E+00 -3.835836117976E+00 1.861459242999E+01 1.964860323585E+01 1.034277688962E+01 -3.661725457006E+02 -7.080659832188E+02 -1.507087166080E+01 4.946001181701E+02 -8.292779792101E+02 1.541617804403E+00 -3.592984840836E+00 -2.881074372307E+00 1.791848778446E+00 -7.494710484009E+01 1.645959741904E+00 -4.224888339534E+00 4.554439462180E+00 3.523283304440E+01 3.970371239684E+00 1.576452939395E+01 1.854121389539E+01 -7.083144687966E+00 -7.960095005319E+01 2.790354021950E+03
 -1.635207681264E+00 8.897270985755E-02 7.731830267871E+00 2.670133966638E+00 -3.164833050375E+00 1.035817488392E+01 1.617027596138E+00 2.208721745062E+00 -1.942287660815E+01 -2.840687252052E+01 -9.613960262074E+00 -9.007308549910E+01 -1.026598829496E+01 -1.100277897204E+01 -9.870596624654E+01 -2.889855502508E-01 2.236498128823E+00 -1.815880029466E+00 1.614025273423E+00 -1.321417764779E+00 1.254197830986E+01 3.826893487652E+00 5.869187672453E+00 4.911086325095E+00 -5.474652194873E+00 6.962635512910E+00 2.593317068103E+01 1.527499341675E+01 3.223576463545E+01 2.511677016229E+02
 -5.599496661046E-02 -2.566731218370E-01 2.460410785039E-01 -1.039484954454E-01 -7.971795268308E-01 3.766474534772E-01 -7.664784289112E-01 -2.125619684974E-01 -8.033176360700E-01 -1.903310642235E-02 -8.694507135864E-01 -4.194821579309E-01 1.905419168185E-01 7.285512189163E-02 -1.065095568637E+00 -1.440970115439E-01 3.130152012207E-01 -1.868771919122E-01 3.864734517072E-02 4.072716336803E-01 3.300629354718E-01 1.420480300346E-01 1.495663090263E+00 -3.148481240350E-01 1.727167662810E+00 -8.925929907975E-01 5.725789057062E-01 4.565026337783E-01 2.373221275009E+00 5.142953375507E-01 2.810479875255E+03
 2.187088318770E-01 1.231692414020E-02 -2.757713888708E-01 1.657589157946E-01 -6.426406335925E-01 -5.428699076805E-01 1.565257795966E-03 1.012730227683E+00 1.036723990552E+00 1.137538588983E+00 -7.698854523693E-01 4.487489946993E-02 -2.586034607186E-01 -8.043668154405E-02 5.591613329789E-01 -6.010006282305E-02 9.251044153519E-02 2.151986359806E-01 3.304707461818E-01 2.926507747201E-01 -2.693980098773E-01 -6.842645009769E-01 5.743832088906E-01 3.218171937548E-01 2.633762920331E-01 4.355711989140E-01 -2.451385495561E-01 6.643365021489E-01 7.204439112047E-02 -3.281352702424E-01 1.483219682141E+00 2.799249568971E+03
 -2.987173118146E-01 -9.112069410710E-02 -1.943024218321E-01 -6.732364775708E-01 5.972690593272E-01 -8.467693270525E-01 -1.099920881231E-01 -8.450317948492E-01 1.545277992059E+00 -8.453087732134E-01 6.148186628200E-01 4.207018462614E-01 4.569336540853E-01 2.102310285985E-01 3.982001640902E+00 2.614033056483E-01 -5.111880628541E-02 4.947696304021E+00 3.395374385774E-01 -3.750253725737E-02 -3.657744635854E-01 9.292560011609E-01 1.781524521489E-01 8.681514131452E-01 1.746280562900E+00 -1.224374052248E+00 -3.637539027764E+00 -6.453979289706E-01 9.958727058283E-01 -1.303400164873E+00 4.563313101584E+01 -6.430814679757E+00 1.952423545351E+02
 -2.027772385434E-01 -2.828918450986E-01 -3.230002656021E-01 -5.366823808908E-01 -6.800325448106E-02 -4.336238679250E-01 -7.947645490131E-01 -2.915100696864E-01 8.997801118261E-01 -5.434301870569E-01 -5.004049135964E-01 6.601343364316E-02 5.826694639753E-01 2.951645454195E-01 7.003782191683E-01 6.129380875541E-02 1.355300191015E-01 2.151438000084E-01 4.200984046722E-01 2.278093622793E-01 -2.584640836938E-01 7.915438429361E-01 1.474463240967E+00 4.249234922077E-01 3.021033622255E+00 -1.551318990919E+00 -9.216251529018E-01 -5.903758263038E-01 3.404492016588E+00 -1.092256578587E+00 4.090155486407E+01 7.155456530587E+01 3.341260224301E-01 2.779240604148E+03
 4.146775586562E-02 -1.989410481542E-02 -4.227693651587E-01 -1.638722575114E+00 -3.605685281199E-01 -7.999206388901E-01 -8.332240244976E-01 3.165197875827E-01 1.641212652810E+00 -2.671675991958E-01 -7.277912441173E-01 4.500971561839E-01 -1.628142989027E-01 -1.122537780603E-01 1.670254825090E+00 1.861278943071E-01 1.557443383987E-01 4.102509621730E-01 7.180323734692E-01 1.834019942987E-01 -4.576443395256E-01 1.035281448166E+00 1.508327963043E+00 6.556378886235E-01 3.698228217295E+00 -1.004526421154E+00 -1.318739376185E+00 9.225543751009E-01 3.469226336082E+00 -1.073421721261E+00 -1.285064397069E+00 -1.906960329273E+00 2.742058338785E-01 2.787467186035E+02 2.861962511348E+03
 -2.287309565818E-02 -6.930678097094E-02 7.704186059795E-01 1.074300154827E+00 -3.686499190860E-01 9.195677657246E-01 2.326226373849E-01 -3.868558063693E-01 -1.851756899576E+00 8.652748485890E-01 -2.524667947836E-01 -4.383200798118E-01 -2.238408791284E-01 -1.039193018027E-01 -3.125845262537E-02 -2.556683350662E-01 2.106629936785E-01 -4.483156988895E-01 -5.025223544686E-01 3.104718737805E-01 7.316897596975E-01 -1.064341051920E+00 -4.332129147972E-02 -5.276014055918E-01 -1.563553568683E+00 -1.287077479543E-02 -1.247461937623E+00 2.321842726288E-01 -1.685512877673E+00 1.251170827943E+00 5.078887420032E-01 1.113450812291E+00 1.111729840002E+01 4.959855725791E+01 -5.554447641639E+00 1.509719198355E+02
 -2.002671475458E+01 -3.415040241624E+01 -1.711636762745E-01 3.866038900860E+01 -9.288797696583E-03 5.417874906021E-01 -2.619947711809E-01 -1.526570234866E-02 -7.780055058189E-01 -8.366045639973E-01 1.445854016240E-01 -2.675383765949E-01 -2.733211149248E-01 -2.437511826008E-01 -8.209649837100E-01 -1.246238814657E+03 -4.337064778131E+02 -1.770324391525E+01 -8.752455098138E-02 -1.663796921066E-01 4.434064231172E-01 7.993305008154E-01 -1.373498141918E-02 -4.594390883820E-01 5.739011200071E-01 2.929330154830E-01 7.510307380298E-01 2.003877983919E+00 9.128444823853E-01 5.331315396409E-01 -1.910463938463E+01 3.410246695922E+01 -6.620482232706E-01 2.818139322415E-02 -1.465817733779E-01 4.168240052776E-02 2.777238369855E+03
 3.608744391347E+01 6.072349256518E+01 1.304050499810E-01 -6.843147351781E+01 -4.866861576370E-01 -1.895062969376E+00 -2.881475796774E-01 1.025206160781E+00 2.254494112543E+00 1.026793232620E+00 -1.041193090873E+00 4.673962587220E-01 -1.877136107923E-01 -3.676157965472E-02 2.303409889096E+00 -4.385243160353E+02 -7.242491945259E+02 -6.472736168524E+00 7.647859044539E-01 3.409584150713E-01 -6.236980525634E-01 -3.578567827002E-01 1.225915208317E+00 8.095108192760E-01 2.422078618178E+00 -2.427441003495E-01 -2.052870484882E+00 8.182113886095E-01 1.808916222907E+00 -1.488596215860E+00 -3.278319342644E+01 5.738745461183E+01 -3.793974977986E-03 -7.219342158427E-02 -4.874174079349E-02 -1.643734565170E-01 1.873302342413E+01 2.804348424838E+03
 -5.314837356952E-01 -3.102590921135E-01 1.000243949327E+01 4.468904148247E-01 3.512018714220E-01 8.530566708168E+00 9.074962573513E-02 -8.412154388531E-01 4.102574442364E-01 -1.816237031324E-01 1.713315658346E-01 -1.278067281565E-01 5.965760446191E-01 3.160360384513E-01 3.287484757836E+00 -1.718714295743E+01 -7.469199752352E+00 -8.317114744132E+01 -1.971295686033E-01 1.590432069536E-01 4.681819139984E+00 2.206815577118E-02 2.270243012699E-01 5.038245750690E+00 3.555674859703E-01 -1.119909014076E+00 -3.989818550120E+00 -1.044648401875E+00 5.771612409883E-02 -1.077731874589E+00 -4.385360572014E-01 6.305210223810E-01 9.517718227043E+00 -6.545527381034E-02 1.817460368532E-01 5.469314872935E-01 4.005052628541E+01 -8.846135291736E-01 1.926622567273E+02
 -4.106337106979E-01 -3.192111078142E-01 -4.382570890840E-01 -2.329971923016E+01 -3.276516679846E+01 -1.335795736442E+00 -3.745441242111E+00 -1.353542423880E+00 1.463450426878E+00 -3.010358259238E+00 -2.066925636809E+00 3.963756960453E-01 5.029221403809E-01 -8.796943126105E-03 2.113380046298E+00 2.027228943945E-01 -1.194973638744E-02 5.151207082230E-01 1.705893924454E+00 5.974537720404E-01 -4.594496606499E-01 4.684878551499E+00 5.915792640380E+00 7.737608768612E-01 1.371706903439E+01 -5.067934389880E+00 -1.713007104308E+00 1.959248762850E+00 1.410563264693E+01 -1.155653300498E+00 3.885883432367E+01 -6.920150162017E+01 9.260129514433E-01 -2.360055466886E+01 3.958803026908E+01 -9.790575965122E-01 3.891519457950E+01 6.660808302814E+01 6.502405703453E-01 2.767008252507E+03
 -1.404054770771E-01 -7.438343680868E-01 -1.531319026868E-01 3.459100795450E+01 5.452951938873E+01 5.738207780903E-01 -1.337795319181E+00 8.310857184063E-01 5.874659914337E-01 2.002859873401E+00 -2.462762904509E+00 -3.678200341426E-01 4.071700198149E-01 3.124434516193E-01 -1.148584181543E+00 -5.132361697639E-01 1.180813875679E+00 1.395359446109E-01 4.504943197509E-01 1.272461073688E+00 3.691879823908E-02 -1.276634558426E+00 3.624906651609E+00 2.063908547714E-01 2.939324065403E+00 -1.735014295889E+00 -8.561097283886E-02 7.366096713392E-01 4.020768332818E+00 -1.065871311135E-01 -5.340715065153E-01 -2.967068687171E-01 2.819699808639E-02 -4.271770083961E+01 7.328271355359E+01 -1.178887165668E+00 4.320869727520E-01 -1.238519870877E+00 -3.560678401388E-01 -4.183715010019E+01 2.757739414408E+03
 -4.408977041617E-01 -1.513768669444E-01 -5.816293698811E-01 -1.023107702071E+00 2.492524050958E-01 7.049809505852E+00 -2.662070999126E-01 -7.683268213141E-01 2.142048679996E+00 -1.128416387654E+00 7.409342327593E-01 7.175871689043E-01 9.448976561948E-01 5.386744714032E-01 1.670936230173E+00 6.189265830653E-01 -1.936758241422E-01 -8.251852303653E+00 4.703600634744E-01 -2.212069047650E-01 -6.975225282525E-01 9.955495152227E-01 2.632311314779E-01 5.215755324014E+00 1.993591223346E+00 -1.326257487824E+00 -1.749474154875E+00 -1.083669239770E+00 1.607493898045E+00 -1.281642412652E+00 2.232899857786E-01 -7.679752064042E-01 9.736175364601E+00 -4.483747608716E-01 9.085889135844E-01 1.196183114962E+01 4.044784935644E-01 1.484894965426E+00 8.859774975652E+00 5.258236240745E+01 -3.598029818013E+00 1.864631533917E+02
 2.117494431087E-01 4.186211149944E-01 -1.487732228552E-01 -5.173860306784E-01 6.911588968380E-01 -3.824471894861E-01 9.201707515158E-01 4.979728477975E-01 7.165376296798E-01 6.152984044952E-02 9.510375718305E-01 4.770991283460E-01 -6.113022329010E-01 -3.127388695596E-01 1.262731871046E+00 2.432944769703E-01 -3.173698925934E-01 1.646292806753E-01 -2.387709060426E-02 -5.192362982725E-01 -2.771599174663E-01 -6.231311305187E-02 -1.892064839031E+00 2.471614353151E-01 -2.109149834243E+00 1.390385729381E+00 -4.796443839104E-01 2.206494518236E-01 -2.989028768975E+00 -1.789579572307E-01 -1.235007530257E+03 4.338390178012E+02 -2.074911412789E+01 -5.050236591199E+02 -1.589184986028E+01 -7.609923635366E+00 -2.941763923340E-01 3.741649337901E-01 1.459953954260E-01 9.738783701327E-01 4.660029782868E-01 5.282385958084E-01 2.841321751322E+03
 -1.094746351112E-01 1.132631630670E-01 4.907135020626E-01 7.649597638238E-01 6.892972641921E-01 1.004017941862E+00 4.604375206658E-01 -7.954047895282E-01 -1.992258388597E+00 -7.847221423793E-01 9.845486532139E-01 -4.002769828023E-01 -5.283523173956E-03 -4.405087082100E-02 -1.670466813283E+00 -9.371433274162E-02 -1.563393252461E-01 -5.150315887037E-01 -6.418906010764E-01 -3.790303833096E-01 5.441384565850E-01 -2.127124920905E-02 -1.436479049001E+00 -7.269195471992E-01 -2.337474150255E+00 7.357715956599E-01 1.573221144825E+00 -5.109452080585E-01 -2.149299918760E+00 1.026656531345E+00 4.360487206973E+02 -7.290353334651E+02 9.264418273291E+00 -2.599086515398E+01 -1.541446968077E+03 5.798096297713E+00 3.011370617933E-02 -1.344745362789E-01 -1.528117600718E-01 2.316980638678E-02 9.083605424093E-01 -4.401368176987E-01 2.833178185460E+01 2.892443240064E+03
 2.068079723845E-01 9.932374733766E-02 -3.192559799276E-01 -2.492120978897E-01 -1.666983491981E-01 -1.208175612821E-01 -1.715860472989E-02 9.031902575656E-01 2.021435717225E-01 4.176030238416E-01 -3.528452725474E-01 1.607995411646E-01 -6.906881510206E-02 1.094010828650E-02 -2.512187587552E+00 -7.312900073986E-02 -9.870865916291E-02 9.907094717764E-02 1.909359025841E-01 -1.115875891916E-01 -2.357702117809E-01 -1.417743263872E-01 1.477642895466E-02 -1.536521366612E-01 -6.356760407318E-02 4.127939640920E-01 2.237041486731E+00 1.352611564397E-01 2.495197006410E-01 4.501686327690E-01 -2.105975250347E+01 9.464513876986E+00 -8.591030087127E+01 -7.667270869432E+00 5.728419992816E+00 -7.756682566063E+01 -4.716364969642E-03 -1.209135953850E-01 3.717044421644E+00 1.933756902524E-01 -5.712179123630E-02 -1.028484302894E+01 4.540514023584E+01 -9.708293100302E+00 1.855803251357E+02
 -4.606933479829E-02 1.584295232112E-01 3.196273004539E-02 -6.824833258285E-01 9.684088074532E-02 3.505696172112E-01 3.458822630587E-01 -2.994916285625E-01 -3.637932791425E-01 -6.042228361599E-01 7.680243678077E-01 1.123102678506E-01 -3.097348404148E-01 -1.633493887151E-01 3.642091862015E-01 -1.918421411134E+01 3.465707568395E+01 -6.597433754734E-01 -1.928145921987E-02 -3.450935485460E-01 -2.513219967160E-02 1.222430473140E-01 -1.143882440251E+00 -1.887977305189E-01 -7.870394273734E-01 9.835543430480E-01 4.957010490082E-01 1.928265442084E-01 -1.575693776295E+00 4.394819866039E-01 -1.222008932720E+03 -4.246189965368E+02 -1.888206132825E+01 -7.186836175493E-02 -1.115935225084E-01 3.049170030294E-01 -1.175136524201E+03 4.229289590262E+02 -1.778763887755E+01 -4.674670219190E+02 -8.382380011815E+00 -7.106113518220E+00 -1.955974903216E+01 -3.412125904711E+01 -6.073813246086E-01 2.750272207627E+03
 -1.905441402323E-01 8.323831638909E-02 4.942678672573E-01 9.466091979804E-02 1.563730170096E+00 1.165098354639E+00 1.084821584896E+00 -1.349781436999E+00 -2.352057443242E+00 -1.607652842104E+00 2.020577460882E+00 -4.203703524311E-01 2.501938731053E-01 1.291865816936E-01 -2.226566420724E+00 -3.286355696719E+01 5.801544167729E+01 -1.303065935934E+00 -9.311112444161E-01 -7.939734575556E-01 5.315287949756E-01 2.775793843900E-01 -3.008958926508E+00 -8.602252054029E-01 -4.318365304997E+00 1.160221148069E+00 1.842965155054E+00 -2.120875761200E+00 -4.098507269105E+00 7.877673558939E-01 -4.271167549816E+02 -7.149026435224E+02 -7.122119276373E+00 2.296558491947E-01 5.198192346427E-01 2.659988624602E-02 4.241048939386E+02 -7.140711347101E+02 7.027695147399E+00 1.419783375900E+00 -1.495806135164E+03 1.117200863168E+00 3.375600855024E+01 5.948742448163E+01 7.448142804531E-01 4.241337845100E+00 2.807565337349E+03
 -2.122575713615E-01 -4.395664476999E-02 3.994438982499E+00 -6.390224294637E-01 3.838292054731E-01 -1.003347043190E+01 -7.027135968181E-02 -3.335891515487E-01 2.415413231745E+00 -6.594540571981E-01 4.520182064109E-01 6.873701457471E-01 2.426860700819E-01 1.161911968598E-01 3.294169151472E+00 -1.991086538238E-01 3.397092076461E-01 9.561198284553E+00 4.746270814917E-01 -1.051583923742E-01 -6.972326009865E-01 9.766897982759E-01 1.790516097850E-01 1.032767721412E+00 1.549615956027E+00 -7.422353649336E-01 -2.578766698325E+00 -4.773592052119E-01 9.642947953145E-01 -1.907367983515E+00 -1.909013054622E+01 -6.081548285539E+00 -8.234990851013E+01 2.169275776372E-01 3.839224049595E-01 -1.059879338298E+01 -1.811653284236E+01 7.854012667516E+00 -8.033010869005E+01 -6.965392091165E+00 1.273880073498E+00 -8.154710801062E+01 -4.601706617123E-01 -1.235391315297E+00 9.546977915394E+00 4.285204691241E+01 -2.868595038400E+00 1.916142929878E+02
 9.839681943910E-02 -2.229117924191E-01 1.501455149097E-01 4.632899310319E+00 8.521555260214E-02 2.374704445774E-01 2.382833502419E+00 8.128934024027E-01 -2.870301193284E-01 3.072454627705E+00 6.582813696057E-01 -4.251606021006E-01 4.241104708445E-01 4.478715673602E-01 -1.643935032180E+00 -4.682239650461E-01 -2.024375389394E-01 -1.220310747792E-01 -1.146932650539E+00 2.538167172557E-01 4.547110257313E-02 -3.989798373150E+00 -2.548126547762E+00 -2.990808397613E-01 -9.160241691236E+00 2.521920897953E+00 1.095406519244E+00 -2.478369687268E+00 -8.905865308752E+00 1.010750702894E+00 1.796951537213E-01 -5.758701051826E-02 -1.895690247033E-01 -1.502913191911E+03 -5.282472858457E+02 -2.625023970923E+01 4.231924685010E-01 2.766377902799E-01 -3.956972803321E-01 -1.277379345773E+03 4.349117729803E+02 -2.511853688260E+01 4.872922387449E+01 -1.163856668871E+00 9.042627810893E-01 3.856520682166E+01 -8.451943827083E-01 5.563016637920E-01 3.071592741675E+03
 1.337720450749E-01 3.372463177914E-01 -9.925478686828E-02 -2.454303782266E+00 2.647315316189E-01 -4.122314956151E-01 -4.936489583995E-01 -5.923541046332E-02 5.043285424252E-01 -1.280727414491E+00 2.935243383960E-01 4.234465556682E-01 -7.711605095916E-01 -5.261637852385E-01 1.730693057966E+00 3.970767768980E-01 -3.591315933898E-02 1.961418048543E-01 5.762632700049E-01 -3.328816910915E-01 -1.999753801178E-01 1.775985537838E+00 -3.862702914217E-02 2.713718372096E-01 2.685622924400E+00 5.834828270291E-02 -3.989019883936E-01 1.763697522284E+00 1.796346396609E+00 -1.342212002048E-01 -3.380014909220E-01 1.664080492091E-01 2.494625926118E-01 -5.388434563583E+02 -8.704538428398E+02 -7.393013324730E+00 -2.288024774507E-01 1.686281848368E-01 3.284669425850E-01 4.197293629550E+02 -7.199159017462E+02 1.029764113512E+01 -8.581386505846E+01 2.015231126665E+00 -1.798827948455E+00 7.172681047738E+01 -6.336702941412E-01 1.759525623295E+00 9.013121061884E+01 2.537047850482E+03
 7.149225364654E-02 1.100325836177E-01 4.873474599340E-01 2.281213948934E-01 -2.684322002667E-01 5.572362064079E+00 -1.066101170464E-01 4.713711046681E-02 -2.307862003073E+00 -1.399438471106E-01 -2.144630029622E-01 -8.033625638458E-01 -8.984101673483E-02 -5.936915245102E-02 -2.444457835366E+00 -2.148755865515E-01 6.866641490997E-03 -5.980619827005E-01 -4.012338195796E-01 -1.027237738423E-01 7.124285735361E-01 -2.815252572930E-01 -2.356564031342E-01 -9.138457893694E-01 -6.964945110066E-01 5.106906230326E-01 1.955872857011E+00 3.111313626687E-01 -1.139787664165E-01 1.113683892860E+00 5.664170282270E-01 -1.747563200240E-01 -1.083618332558E+01 -2.621909476334E+01 -7.317829729241E+00 -7.065895580914E+01 1.413899032810E-02 -2.937191347099E-01 4.315610267669E+00 -2.525936206394E+01 1.031970570990E+01 -7.664925073673E+01 7.346407577655E-01 1.492370762049E-01 1.107742486590E+01 5.019825960594E-01 4.860647080822E-01 9.188846052705E+00 5.685567030201E+01 -8.255767035467E+00 1.521122006845E+02
 2.024372278451E+00 -4.430521647140E-02 -1.902647357495E+00 -1.223455375802E+03 4.450234610496E+02 -2.439295887979E+01 7.352406718276E+00 8.788580801454E+00 7.977994100361E+00 1.429379845540E+01 -1.438760207321E+00 9.687724110105E-01 -1.662562566729E+00 -5.091949742693E-02 4.337205449996E+00 3.857454294647E+01 -8.305425738554E-01 2.436818782969E+00 -5.771466341810E-01 1.652469892838E+00 -2.174787377230E+00 -3.149569452284E+01 2.950818424032E+01 2.247263089037E+00 -2.255911699990E+01 7.374802310324E+00 -5.244644968925E+00 -4.526135573718E+00 -2.365871236939E+01 -2.175447446246E+00 2.207050998020E-01 -4.181838041203E-01 1.277273858072E+00 1.419386723031E+00 1.338078277515E+00 -1.180317002916E+00 -8.276477297938E-01 3.295987953905E-01 4.772209734435E-01 -1.133842964263E+03 -3.870312434164E+02 -1.914477425194E+01 -3.763872444362E-01 -6.608187412673E-01 8.094379499892E-03 3.707257229544E+01 -2.340614826740E-01 1.754707617655E+00 -2.130567852400E+01 -3.173250225964E+01 -1.123342956047E+00 2.721496836728E+03
 -4.926579531858E-01 1.984862393007E+00 1.679958100310E+00 4.479171321169E+02 -7.256999209111E+02 9.551725888878E+00 -1.944566405386E-01 -6.178858484750E+00 -7.541475013823E+00 -1.215545296806E+01 6.627775284810E+00 -6.621808903045E-01 -3.358189308042E-01 -7.312163597378E-01 -1.983455674041E+00 6.781259682408E+01 -3.094557745772E+00 -9.094636441604E-02 -1.131803908088E+00 -3.913668326550E+00 1.854467085770E+00 -2.478085877491E+01 5.331110342044E+01 -3.371619868537E+00 2.499795505991E+00 2.168739884484E+00 4.705668606147E+00 1.432256890465E+00 4.642247392981E-01 3.123076154206E+00 1.874692425540E+00 1.300902489967E+00 -7.747627673183E-01 6.147625072803E-01 9.024448186822E-01 1.016410472221E+00 -1.167564080352E+00 1.979248941852E+00 1.400946319509E-01 -3.826773325554E+02 -6.719924555122E+02 -9.092988870310E+00 -1.871809460332E+00 -1.791497896106E+00 3.833708045257E-02 -6.651238575362E+01 -2.952290698035E+00 -2.071113476606E+00 3.172408559596E+01 5.675955302238E+01 8.655937964999E-01 -1.230551339845E+01 2.802323963690E+03
 8.102201593183E-03 3.069841004010E-01 4.933979918144E+00 -2.328523390887E+01 6.910904946103E+00 -8.235588701570E+01 -3.648343998952E-01 -4.090192596171E-01 -5.637671249417E-01 -1.362519277324E+00 2.930146777761E-01 4.651350313381E+00 -6.496180729396E-01 -4.510735215029E-01 3.259689045156E+00 1.096158433893E+00 6.360138134978E-03 8.685539260850E+00 4.189119925002E-01 -3.164422016566E-01 3.351068483405E-01 9.234190049723E-01 7.450220770929E-01 9.807191189967E+00 2.527645517792E+00 -5.570951182701E-01 -3.323636306518E+00 1.176608973884E+00 1.410847939541E+00 -2.666869170622E-01 -1.998559613649E-01 -1.299345185810E-02 5.131971739658E+00 1.705938279473E-01 -5.464335058655E-03 6.074220360418E+00 3.443938780030E-02 3.578057435779E-01 -7.820420017459E+00 -2.103883229090E+01 -7.519756518185E+00 -8.185565325219E+01 -1.341585185909E-01 -3.607446572851E-02 -6.958206614903E-01 6.919144514986E-01 -5.072109471279E-01 8.567872174281E+00 -3.560416041442E-01 -1.053139430575E+00 9.308929665049E+00 5.023899035111E+01 6.097178423408E+00 1.872251319601E+02