#BIOSYM hessian 1
@Type: Hessian Update
@Units
 distance: 	A
 energy: 	Kcal/Mol
#header
@natom 66

#label
C1      C2      C3      C4      C5      C6      C7      C8      C9      C10     C11     C12     C13     C14     C15     C16     C17     C18     C19     C20     C21     C22     C23     H24     C25     C26     C27     C28     C29     C30     C31     C32     C33     C34     C35     C36     C37     C38     C39     C40     C41     C42     C43     C44     C45     C46     C47     C48     C49     H50     H51     H52     H53     H54     H55     H56     H57     H58     H59     H60     H61     H62     H63     H64     H65     H66

#element
C  C  C  C  C  C  C  C  C  C  C  C  C  C  C  C  C  C  C  C  C  C  C  H  C  C  C  C  C  C  C  C  C  C  C  C  C  C  C  C  C  C  C  C  C  C  C  C  C  H  H  H  H  H  H  H  H  H  H  H  H  H  H  H  H  H 

#matrix
198
 2.783837079949E+03
 -2.393870852887E+01 2.819651622050E+03
 0.000000000000E+00 0.000000000000E+00 0.000000000000E+00
 3.974440413587E+01 6.705613188081E+01 0.000000000000E+00 2.792776138481E+03
 1.074231208390E+00 -6.129462920484E-01 0.000000000000E+00 -2.632329790097E+01 2.761474369750E+03
 0.000000000000E+00 0.000000000000E+00 0.000000000000E+00 0.000000000000E+00 0.000000000000E+00 0.000000000000E+00
 -1.786813840910E+01 3.446113320272E+01 0.000000000000E+00 -3.246058956414E+00 -1.147169219263E+01 0.000000000000E+00 2.793626960625E+03
 -3.509367584503E+01 5.991454205166E+01 0.000000000000E+00 1.249408236645E+00 1.260662443616E+01 0.000000000000E+00 -1.398063043331E+01 2.804557086002E+03
 0.000000000000E+00 0.000000000000E+00 0.000000000000E+00 0.000000000000E+00 0.000000000000E+00 0.000000000000E+00 0.000000000000E+00 0.000000000000E+00 0.000000000000E+00
 3.889195427975E+01 -6.828656821368E+01 0.000000000000E+00 -2.040698874126E+01 3.835260230851E+01 0.000000000000E+00 4.557177570371E+01 7.060675418983E+01 0.000000000000E+00 2.789432040855E+03
 1.488793381329E+00 1.823256013308E-01 0.000000000000E+00 -3.541989977144E+01 4.409951944536E+01 0.000000000000E+00 -2.286959887459E+01 1.902392745063E+01 0.000000000000E+00 -1.745434068508E+01 2.807628976233E+03
 0.000000000000E+00 0.000000000000E+00 0.000000000000E+00 0.000000000000E+00 0.000000000000E+00 0.000000000000E+00 0.000000000000E+00 0.000000000000E+00 0.000000000000E+00 0.000000000000E+00 0.000000000000E+00 0.000000000000E+00
 -8.217060708862E-01 9.335865341452E-02 0.000000000000E+00 1.535428076271E+00 4.715508001521E+00 0.000000000000E+00 4.970298429934E+01 -8.121224581504E+01 0.000000000000E+00 -2.322038535112E+01 4.791439493202E+01 0.000000000000E+00 2.632685503587E+03
 2.272162572251E-02 9.764731495275E-02 0.000000000000E+00 -4.729889517966E-01 1.608915639359E+00 0.000000000000E+00 1.997635569503E+00 -1.115635162110E+00 0.000000000000E+00 -3.494607468960E+01 6.405763168615E+01 0.000000000000E+00 -2.235310484455E+02 2.900401852123E+03
 0.000000000000E+00 0.000000000000E+00 0.000000000000E+00 0.000000000000E+00 0.000000000000E+00 0.000000000000E+00 0.000000000000E+00 0.000000000000E+00 0.000000000000E+00 0.000000000000E+00 0.000000000000E+00 0.000000000000E+00 0.000000000000E+00 0.000000000000E+00 0.000000000000E+00
 -1.231097334971E+03 4.476036257702E+02 0.000000000000E+00 -4.642113995250E+02 -2.034745594662E+00 0.000000000000E+00 9.848290371597E+00 -8.278542944956E+00 0.000000000000E+00 -8.742518143289E-01 1.089885786676E+01 0.000000000000E+00 -4.268684178840E+00 -3.621651619381E-01 0.000000000000E+00 2.818046775711E+03
 4.436063173869E+02 -7.416170559381E+02 0.000000000000E+00 -1.032325783988E+01 -1.443432184748E+03 0.000000000000E+00 -1.601996763139E+01 1.517890646693E+01 0.000000000000E+00 2.726943498304E+00 -1.913681811109E+01 0.000000000000E+00 6.796251983662E+00 1.276088555980E+00 0.000000000000E+00 7.040578336529E+00 2.768318214875E+03
 0.000000000000E+00 0.000000000000E+00 0.000000000000E+00 0.000000000000E+00 0.000000000000E+00 0.000000000000E+00 0.000000000000E+00 0.000000000000E+00 0.000000000000E+00 0.000000000000E+00 0.000000000000E+00 0.000000000000E+00 0.000000000000E+00 0.000000000000E+00 0.000000000000E+00 0.000000000000E+00 0.000000000000E+00 0.000000000000E+00
 -1.192962856218E+03 -4.126642698550E+02 0.000000000000E+00 6.225165885840E-01 -7.031772472199E+00 0.000000000000E+00 -1.271271994683E+03 4.538775385210E+02 0.000000000000E+00 -4.862160592738E+02 -2.009007133435E+01 0.000000000000E+00 3.950237736384E+00 -4.241535458151E-01 0.000000000000E+00 -1.639238393725E+01 -4.016501014449E+01 0.000000000000E+00 2.820040272505E+03
 -4.121457169267E+02 -7.020417468995E+02 0.000000000000E+00 1.050784328454E+00 -1.459090858227E+00 0.000000000000E+00 4.492101239829E+02 -7.490335567980E+02 0.000000000000E+00 -1.515863083872E+01 -1.512900499443E+03 0.000000000000E+00 5.243320447460E-01 -5.969196757575E-01 0.000000000000E+00 3.409739514729E+01 5.774997450986E+01 0.000000000000E+00 -2.526868109282E+01 2.846444971235E+03
 0.000000000000E+00 0.000000000000E+00 0.000000000000E+00 0.000000000000E+00 0.000000000000E+00 0.000000000000E+00 0.000000000000E+00 0.000000000000E+00 0.000000000000E+00 0.000000000000E+00 0.000000000000E+00 0.000000000000E+00 0.000000000000E+00 0.000000000000E+00 0.000000000000E+00 0.000000000000E+00 0.000000000000E+00 0.000000000000E+00 0.000000000000E+00 0.000000000000E+00 0.000000000000E+00
 -1.856063248735E+00 3.716621892287E-01 0.000000000000E+00 -1.218633947697E+03 -4.060808351943E+02 0.000000000000E+00 2.069271662572E+01 -1.897648618312E+01 0.000000000000E+00 -1.228110998624E+03 4.655053142295E+02 0.000000000000E+00 -8.832996722130E+00 -1.395277376796E+00 0.000000000000E+00 2.678738562961E+01 1.745328866708E+01 0.000000000000E+00 4.998253228706E+01 -1.342659992391E-01 0.000000000000E+00 2.785443090833E+03
 9.686685937345E-01 -2.557365946555E-02 0.000000000000E+00 -4.241911080529E+02 -7.089870983949E+02 0.000000000000E+00 -7.645043590921E+00 8.608863067363E+00 0.000000000000E+00 4.418909596146E+02 -7.468845725784E+02 0.000000000000E+00 3.124381223303E+00 1.155153412035E+00 0.000000000000E+00 -6.209240344956E+01 -6.278738676842E+00 0.000000000000E+00 6.521862796345E+01 -1.770445999179E+00 0.000000000000E+00 7.745964309655E+00 2.805277229729E+03
 0.000000000000E+00 0.000000000000E+00 0.000000000000E+00 0.000000000000E+00 0.000000000000E+00 0.000000000000E+00 0.000000000000E+00 0.000000000000E+00 0.000000000000E+00 0.000000000000E+00 0.000000000000E+00 0.000000000000E+00 0.000000000000E+00 0.000000000000E+00 0.000000000000E+00 0.000000000000E+00 0.000000000000E+00 0.000000000000E+00 0.000000000000E+00 0.000000000000E+00 0.000000000000E+00 0.000000000000E+00 0.000000000000E+00 0.000000000000E+00
 2.392411574511E-01 1.756070935551E-01 0.000000000000E+00 -1.312319360600E+00 2.165750489007E+00 0.000000000000E+00 -1.194540087334E+03 -4.066696740720E+02 0.000000000000E+00 1.395990912186E+00 9.817674931363E-02 0.000000000000E+00 -5.227779801309E+02 8.531610126360E+00 0.000000000000E+00 2.535963274718E-01 1.009177724358E+00 0.000000000000E+00 -2.159149297652E+01 -3.529238441790E+01 0.000000000000E+00 -7.802239751653E-01 1.615914684860E+00 0.000000000000E+00 2.774962122598E+03
 -1.350164638166E+00 7.072528481617E-02 0.000000000000E+00 2.863300435611E+00 6.372197190225E+00 0.000000000000E+00 -4.049220430237E+02 -7.159998551922E+02 0.000000000000E+00 -3.100438789995E+00 1.476422135382E+01 0.000000000000E+00 4.767114659321E+00 -1.637579622594E+03 0.000000000000E+00 -6.633547029585E+00 1.000857675102E+01 0.000000000000E+00 4.146162564326E+01 6.081322935008E+01 0.000000000000E+00 -1.321658590343E+01 4.151411143497E+00 0.000000000000E+00 -3.272466337329E+01 2.952280464589E+03
 0.000000000000E+00 0.000000000000E+00 0.000000000000E+00 0.000000000000E+00 0.000000000000E+00 0.000000000000E+00 0.000000000000E+00 0.000000000000E+00 0.000000000000E+00 0.000000000000E+00 0.000000000000E+00 0.000000000000E+00 0.000000000000E+00 0.000000000000E+00 0.000000000000E+00 0.000000000000E+00 0.000000000000E+00 0.000000000000E+00 0.000000000000E+00 0.000000000000E+00 0.000000000000E+00 0.000000000000E+00 0.000000000000E+00 0.000000000000E+00 0.000000000000E+00 0.000000000000E+00 0.000000000000E+00
 1.401015828126E-01 -3.503417139020E-02 0.000000000000E+00 -1.826871894358E-01 -1.118995215892E+00 0.000000000000E+00 -1.667194404745E+00 1.464719861416E+00 0.000000000000E+00 -1.195566443069E+03 -4.184815109475E+02 0.000000000000E+00 -1.334247178363E+03 4.955341157718E+02 0.000000000000E+00 8.137357626064E-01 -1.422376115906E+00 0.000000000000E+00 3.810531228985E+01 -3.494972232606E-01 0.000000000000E+00 -1.759677936861E+01 -3.351091271141E+01 0.000000000000E+00 4.946596049072E+01 1.476261281568E+00 0.000000000000E+00 2.881443975542E+03
 1.303800683102E+00 6.496614575849E-03 0.000000000000E+00 -3.090327955299E+00 -4.839357548150E+00 0.000000000000E+00 -9.479506428516E+00 1.124331015988E+01 0.000000000000E+00 -4.047996494849E+02 -7.167134292333E+02 0.000000000000E+00 4.973470038021E+02 -8.208837870968E+02 0.000000000000E+00 6.043655325562E+00 -8.558024459145E+00 0.000000000000E+00 -7.544991469590E+01 -1.077221294731E+00 0.000000000000E+00 4.594378454599E+01 5.504845464834E+01 0.000000000000E+00 8.382612014513E+01 5.507529808916E+00 0.000000000000E+00 -9.783328564895E+01 2.843092780468E+03
 0.000000000000E+00 0.000000000000E+00 0.000000000000E+00 0.000000000000E+00 0.000000000000E+00 0.000000000000E+00 0.000000000000E+00 0.000000000000E+00 0.000000000000E+00 0.000000000000E+00 0.000000000000E+00 0.000000000000E+00 0.000000000000E+00 0.000000000000E+00 0.000000000000E+00 0.000000000000E+00 0.000000000000E+00 0.000000000000E+00 0.000000000000E+00 0.000000000000E+00 0.000000000000E+00 0.000000000000E+00 0.000000000000E+00 0.000000000000E+00 0.000000000000E+00 0.000000000000E+00 0.000000000000E+00 0.000000000000E+00 0.000000000000E+00 0.000000000000E+00
 3.908066003480E+00 -3.460368176825E-01 0.000000000000E+00 -7.707565139783E+00 -2.086026498972E+01 0.000000000000E+00 -3.533308643363E+01 3.656062850942E+01 0.000000000000E+00 8.357489424281E+00 -4.473792895332E+01 0.000000000000E+00 1.472104674687E+01 4.047184303467E+00 0.000000000000E+00 1.988831336555E+01 -3.101603487823E+01 0.000000000000E+00 -1.910085482284E+01 -3.066609513926E+00 0.000000000000E+00 4.055283829548E+01 -1.373699389537E+01 0.000000000000E+00 4.786397190632E+00 2.066404871499E+01 0.000000000000E+00 -3.315161489640E+00 -1.658786693945E+01 0.000000000000E+00 2.743726577784E+03
 1.628871759179E+00 -2.291709375034E-01 0.000000000000E+00 -2.848518305016E+00 -1.017558727406E+01 0.000000000000E+00 -1.634086765693E+01 1.590540600549E+01 0.000000000000E+00 3.101879266565E+00 -1.986546279408E+01 0.000000000000E+00 6.894833637430E+00 1.469322370272E+00 0.000000000000E+00 8.701026006467E+00 -1.417663632081E+01 0.000000000000E+00 -7.702215184476E+00 -7.850994613740E-01 0.000000000000E+00 1.830351081959E+01 -6.782752901304E+00 0.000000000000E+00 1.380551273213E+00 1.001503690732E+01 0.000000000000E+00 -1.475437832283E+00 -8.416824247061E+00 0.000000000000E+00 -2.912959606319E+01 2.786291010827E+03
 0.000000000000E+00 0.000000000000E+00 0.000000000000E+00 0.000000000000E+00 0.000000000000E+00 0.000000000000E+00 0.000000000000E+00 0.000000000000E+00 0.000000000000E+00 0.000000000000E+00 0.000000000000E+00 0.000000000000E+00 0.000000000000E+00 0.000000000000E+00 0.000000000000E+00 0.000000000000E+00 0.000000000000E+00 0.000000000000E+00 0.000000000000E+00 0.000000000000E+00 0.000000000000E+00 0.000000000000E+00 0.000000000000E+00 0.000000000000E+00 0.000000000000E+00 0.000000000000E+00 0.000000000000E+00 0.000000000000E+00 0.000000000000E+00 0.000000000000E+00 0.000000000000E+00 0.000000000000E+00 0.000000000000E+00
 -2.458800325565E+00 8.022198944139E-01 0.000000000000E+00 2.351397652939E+00 2.327953040937E+01 0.000000000000E+00 3.329187426765E+01 -2.756449504546E+01 0.000000000000E+00 -2.637661735443E+00 3.649625993130E+01 0.000000000000E+00 -1.446768937793E+01 -1.054339550623E+00 0.000000000000E+00 -1.533406811827E+01 2.807773429193E+01 0.000000000000E+00 1.023669210685E+01 -1.456792216264E+00 0.000000000000E+00 -3.511590489421E+01 1.589221993571E+01 0.000000000000E+00 1.208960032517E+00 -2.261903087664E+01 0.000000000000E+00 2.726347140361E+00 2.074345687792E+01 0.000000000000E+00 1.091326376420E+02 1.011383712683E+02 0.000000000000E+00 2.731585691883E+03
 -2.206882291651E-02 8.906768858110E-03 0.000000000000E+00 1.363335330062E-02 2.390769682338E-01 0.000000000000E+00 3.316330013255E-01 -2.608927384945E-01 0.000000000000E+00 -1.591108530248E-02 3.523528916098E-01 0.000000000000E+00 -1.453718937076E-01 -5.074087511743E-03 0.000000000000E+00 -1.459757478597E-01 2.775107901871E-01 0.000000000000E+00 8.661520338246E-02 -2.316163668109E-02 0.000000000000E+00 -3.436723386035E-01 1.641649965766E-01 0.000000000000E+00 2.347423410568E-02 -2.316392664847E-01 0.000000000000E+00 2.636973590599E-02 2.167991019570E-01 0.000000000000E+00 -3.286332672825E-01 -1.453113402299E+00 0.000000000000E+00 2.778708303249E+02 2.859081627438E+03
 0.000000000000E+00 0.000000000000E+00 0.000000000000E+00 0.000000000000E+00 0.000000000000E+00 0.000000000000E+00 0.000000000000E+00 0.000000000000E+00 0.000000000000E+00 0.000000000000E+00 0.000000000000E+00 0.000000000000E+00 0.000000000000E+00 0.000000000000E+00 0.000000000000E+00 0.000000000000E+00 0.000000000000E+00 0.000000000000E+00 0.000000000000E+00 0.000000000000E+00 0.000000000000E+00 0.000000000000E+00 0.000000000000E+00 0.000000000000E+00 0.000000000000E+00 0.000000000000E+00 0.000000000000E+00 0.000000000000E+00 0.000000000000E+00 0.000000000000E+00 0.000000000000E+00 0.000000000000E+00 0.000000000000E+00 0.000000000000E+00 0.000000000000E+00 0.000000000000E+00
 -2.255090448019E+01 -3.415611686037E+01 0.000000000000E+00 4.287128911426E+01 1.171571446032E+01 0.000000000000E+00 2.030775280336E+01 -2.093306914330E+01 0.000000000000E+00 -4.743434211210E+00 2.564858879000E+01 0.000000000000E+00 -8.468382607336E+00 -2.294563685062E+00 0.000000000000E+00 -1.258107103247E+03 -4.159275491313E+02 0.000000000000E+00 1.088884201029E+01 1.711225320430E+00 0.000000000000E+00 -2.327268291595E+01 7.929517840420E+00 0.000000000000E+00 -2.684195560565E+00 -1.191421144043E+01 0.000000000000E+00 1.900605429659E+00 9.592902615904E+00 0.000000000000E+00 1.857909374665E+01 5.208001903082E+01 0.000000000000E+00 -3.868434444768E+01 -3.910380443348E-01 0.000000000000E+00 2.754800097240E+03
 3.809192194149E+01 6.062302011076E+01 0.000000000000E+00 -7.293290416214E+01 -8.841458988775E+00 0.000000000000E+00 -1.736765936094E+01 1.959508518597E+01 0.000000000000E+00 5.343027434130E+00 -2.332389813727E+01 0.000000000000E+00 7.094524956167E+00 2.639314705485E+00 0.000000000000E+00 -4.278724858878E+02 -7.395245135628E+02 0.000000000000E+00 -1.121845384952E+01 -2.533125496866E+00 0.000000000000E+00 2.066263422742E+01 -6.056970682117E+00 0.000000000000E+00 3.702125539027E+00 9.413921163152E+00 0.000000000000E+00 -1.723364856091E+00 -6.947757090698E+00 0.000000000000E+00 -6.368642350979E+01 4.163693645176E+01 0.000000000000E+00 3.617398063887E+01 3.738842504950E-01 0.000000000000E+00 3.556661776791E+01 2.792701188546E+03
 0.000000000000E+00 0.000000000000E+00 0.000000000000E+00 0.000000000000E+00 0.000000000000E+00 0.000000000000E+00 0.000000000000E+00 0.000000000000E+00 0.000000000000E+00 0.000000000000E+00 0.000000000000E+00 0.000000000000E+00 0.000000000000E+00 0.000000000000E+00 0.000000000000E+00 0.000000000000E+00 0.000000000000E+00 0.000000000000E+00 0.000000000000E+00 0.000000000000E+00 0.000000000000E+00 0.000000000000E+00 0.000000000000E+00 0.000000000000E+00 0.000000000000E+00 0.000000000000E+00 0.000000000000E+00 0.000000000000E+00 0.000000000000E+00 0.000000000000E+00 0.000000000000E+00 0.000000000000E+00 0.000000000000E+00 0.000000000000E+00 0.000000000000E+00 0.000000000000E+00 0.000000000000E+00 0.000000000000E+00 0.000000000000E+00
 5.971629944284E-01 6.017288496062E-02 0.000000000000E+00 -2.059530402931E+01 -3.262421034477E+01 0.000000000000E+00 -3.252238732291E+00 4.697907262908E+00 0.000000000000E+00 1.783350246061E+00 -5.213931910389E+00 0.000000000000E+00 1.239687526409E+00 9.070482205267E-01 0.000000000000E+00 2.491191055098E+00 -3.078262690769E+00 0.000000000000E+00 -3.261316691347E+00 -1.123300050362E+00 0.000000000000E+00 4.332511895265E+00 -6.936774928955E-01 0.000000000000E+00 1.547567187082E+00 1.293179236344E+00 0.000000000000E+00 -3.817184547047E-01 -5.365841520802E-01 0.000000000000E+00 3.446921649100E+01 -7.223888854662E+01 0.000000000000E+00 -1.430641766826E+01 4.043624812121E+01 0.000000000000E+00 4.294396094304E+01 6.539701295322E+01 0.000000000000E+00 2.772644150519E+03
 -4.621162513775E+00 2.077214465358E-01 0.000000000000E+00 4.353674256010E+01 7.684647292882E+01 0.000000000000E+00 3.797396815230E+01 -4.165851580410E+01 0.000000000000E+00 -1.078207968921E+01 5.002547650039E+01 0.000000000000E+00 -1.561609403623E+01 -5.298004013187E+00 0.000000000000E+00 -2.254563227702E+01 3.372693738227E+01 0.000000000000E+00 2.319490946952E+01 4.789261730643E+00 0.000000000000E+00 -4.464668740797E+01 1.375034556857E+01 0.000000000000E+00 -7.109499718548E+00 -2.112641077194E+01 0.000000000000E+00 3.699459259722E+00 1.607000555355E+01 0.000000000000E+00 6.901187842525E+01 3.383465147505E+01 0.000000000000E+00 -1.190593404532E+02 7.322355260114E+01 0.000000000000E+00 -3.994086021216E+01 3.102843291924E+01 0.000000000000E+00 -3.334783057747E+01 2.686235608210E+03
 0.000000000000E+00 0.000000000000E+00 0.000000000000E+00 0.000000000000E+00 0.000000000000E+00 0.000000000000E+00 0.000000000000E+00 0.000000000000E+00 0.000000000000E+00 0.000000000000E+00 0.000000000000E+00 0.000000000000E+00 0.000000000000E+00 0.000000000000E+00 0.000000000000E+00 0.000000000000E+00 0.000000000000E+00 0.000000000000E+00 0.000000000000E+00 0.000000000000E+00 0.000000000000E+00 0.000000000000E+00 0.000000000000E+00 0.000000000000E+00 0.000000000000E+00 0.000000000000E+00 0.000000000000E+00 0.000000000000E+00 0.000000000000E+00 0.000000000000E+00 0.000000000000E+00 0.000000000000E+00 0.000000000000E+00 0.000000000000E+00 0.000000000000E+00 0.000000000000E+00 0.000000000000E+00 0.000000000000E+00 0.000000000000E+00 0.000000000000E+00 0.000000000000E+00 0.000000000000E+00
 -3.545051911647E+00 2.333028448034E-01 0.000000000000E+00 7.337113013197E+00 1.752158839672E+01 0.000000000000E+00 3.052600401075E+01 -3.253693502012E+01 0.000000000000E+00 -7.943552727075E+00 3.943254498460E+01 0.000000000000E+00 -1.263583532158E+01 -3.877556594350E+00 0.000000000000E+00 -1.765287852822E+01 2.695501472362E+01 0.000000000000E+00 1.757379960752E+01 3.249273867059E+00 0.000000000000E+00 -3.546305041783E+01 1.146095942346E+01 0.000000000000E+00 -4.924778079524E+00 -1.741812992168E+01 0.000000000000E+00 2.918916972187E+00 1.362497986275E+01 0.000000000000E+00 -1.178089467710E+03 4.610511834706E+02 0.000000000000E+00 -5.673074155213E+02 -1.781665777618E+01 0.000000000000E+00 -3.243382644793E+01 2.600129840072E+01 0.000000000000E+00 3.813371239084E+00 -5.806670075737E+01 0.000000000000E+00 2.795010195710E+03
 3.643509386124E+00 -3.615577760560E-01 0.000000000000E+00 -7.019759134429E+00 -2.012567698957E+01 0.000000000000E+00 -3.368009954690E+01 3.439139646124E+01 0.000000000000E+00 7.617680647326E+00 -4.226829002670E+01 0.000000000000E+00 1.407235984104E+01 3.674198448237E+00 0.000000000000E+00 1.873112586444E+01 -2.948949265596E+01 0.000000000000E+00 -1.769043246996E+01 -2.633259275712E+00 0.000000000000E+00 3.844977752846E+01 -1.329084371219E+01 0.000000000000E+00 4.181184158669E+00 1.990750729057E+01 0.000000000000E+00 -3.133527311443E+00 -1.615258075170E+01 0.000000000000E+00 3.728580554447E+02 -7.615238375671E+02 0.000000000000E+00 3.636185513024E+01 -1.540830107618E+03 0.000000000000E+00 3.641550328161E+01 -3.017537035648E+01 0.000000000000E+00 -5.063219379222E+00 6.665518671842E+01 0.000000000000E+00 8.393334377119E+01 2.832513180752E+03
 0.000000000000E+00 0.000000000000E+00 0.000000000000E+00 0.000000000000E+00 0.000000000000E+00 0.000000000000E+00 0.000000000000E+00 0.000000000000E+00 0.000000000000E+00 0.000000000000E+00 0.000000000000E+00 0.000000000000E+00 0.000000000000E+00 0.000000000000E+00 0.000000000000E+00 0.000000000000E+00 0.000000000000E+00 0.000000000000E+00 0.000000000000E+00 0.000000000000E+00 0.000000000000E+00 0.000000000000E+00 0.000000000000E+00 0.000000000000E+00 0.000000000000E+00 0.000000000000E+00 0.000000000000E+00 0.000000000000E+00 0.000000000000E+00 0.000000000000E+00 0.000000000000E+00 0.000000000000E+00 0.000000000000E+00 0.000000000000E+00 0.000000000000E+00 0.000000000000E+00 0.000000000000E+00 0.000000000000E+00 0.000000000000E+00 0.000000000000E+00 0.000000000000E+00 0.000000000000E+00 0.000000000000E+00 0.000000000000E+00 0.000000000000E+00
 1.188452175686E+00 -3.238682678666E-01 0.000000000000E+00 -1.407871124700E+00 -1.015018242255E+01 0.000000000000E+00 -1.489111831708E+01 1.282850509473E+01 0.000000000000E+00 1.559863826685E+00 -1.673443688332E+01 0.000000000000E+00 6.427922645593E+00 6.716832456460E-01 0.000000000000E+00 -1.256463093690E+01 2.209591921701E+01 0.000000000000E+00 -5.141329862905E+00 3.362607429247E-01 0.000000000000E+00 1.593099556646E+01 -6.894324320897E+00 0.000000000000E+00 -1.259758521254E-01 9.888680162519E+00 0.000000000000E+00 -1.248414019500E+00 -8.907328968535E+00 0.000000000000E+00 -1.251749614259E+03 -4.385461803523E+02 0.000000000000E+00 2.375537445259E+01 2.278477487822E-01 0.000000000000E+00 -1.155990255459E+03 4.083398299471E+02 0.000000000000E+00 -4.756292153901E+02 2.412222718113E+01 0.000000000000E+00 6.697327161968E+00 -6.208412025365E+01 0.000000000000E+00 2.740922978100E+03
 5.476698514740E-01 -7.017818544923E-02 0.000000000000E+00 -9.875103700748E-01 -3.297331095597E+00 0.000000000000E+00 -5.357204120335E+00 5.287386022675E+00 0.000000000000E+00 1.073080719878E+00 -6.573940803004E+00 0.000000000000E+00 2.254814754799E+00 5.118709288055E-01 0.000000000000E+00 -3.002946734950E+01 5.347547276706E+01 0.000000000000E+00 -2.608667951092E+00 -3.030049877221E-01 0.000000000000E+00 6.034333151820E+00 -2.192359266523E+00 0.000000000000E+00 5.127766842682E-01 3.250955220804E+00 0.000000000000E+00 -4.876548895820E-01 -2.704737010741E+00 0.000000000000E+00 -4.388455183110E+02 -7.181281859129E+02 0.000000000000E+00 9.777559095743E+00 9.729969626406E-02 0.000000000000E+00 4.312681755869E+02 -7.215579293415E+02 0.000000000000E+00 -9.824170415807E-01 -1.486415118568E+03 0.000000000000E+00 4.332458888364E+01 4.982894245234E+01 0.000000000000E+00 -6.407230848548E-01 2.807878506514E+03
 0.000000000000E+00 0.000000000000E+00 0.000000000000E+00 0.000000000000E+00 0.000000000000E+00 0.000000000000E+00 0.000000000000E+00 0.000000000000E+00 0.000000000000E+00 0.000000000000E+00 0.000000000000E+00 0.000000000000E+00 0.000000000000E+00 0.000000000000E+00 0.000000000000E+00 0.000000000000E+00 0.000000000000E+00 0.000000000000E+00 0.000000000000E+00 0.000000000000E+00 0.000000000000E+00 0.000000000000E+00 0.000000000000E+00 0.000000000000E+00 0.000000000000E+00 0.000000000000E+00 0.000000000000E+00 0.000000000000E+00 0.000000000000E+00 0.000000000000E+00 0.000000000000E+00 0.000000000000E+00 0.000000000000E+00 0.000000000000E+00 0.000000000000E+00 0.000000000000E+00 0.000000000000E+00 0.000000000000E+00 0.000000000000E+00 0.000000000000E+00 0.000000000000E+00 0.000000000000E+00 0.000000000000E+00 0.000000000000E+00 0.000000000000E+00 0.000000000000E+00 0.000000000000E+00 0.000000000000E+00
 -3.593848091081E+00 7.485668928015E-01 0.000000000000E+00 5.250751153389E+00 2.665550326776E+01 0.000000000000E+00 4.063269545843E+01 -3.697951052685E+01 0.000000000000E+00 -5.758137439028E+00 4.728660684097E+01 0.000000000000E+00 -1.736876234977E+01 -2.624663360650E+00 0.000000000000E+00 -2.036659042925E+01 3.482564762988E+01 0.000000000000E+00 1.625664415835E+01 3.285573630220E-01 0.000000000000E+00 -4.435946188732E+01 1.796703803923E+01 0.000000000000E+00 -1.296379410073E+00 -2.608073975730E+01 0.000000000000E+00 3.519963104100E+00 2.283835527750E+01 0.000000000000E+00 7.985473343898E+01 3.593795567550E+01 0.000000000000E+00 -1.574048739627E+03 -5.292608118612E+02 0.000000000000E+00 -4.581926522342E+01 4.085697065026E+01 0.000000000000E+00 -1.269367722161E+03 3.468312864484E+02 0.000000000000E+00 -2.108638407205E+01 7.447672760113E+01 0.000000000000E+00 7.035311698420E+01 1.176868041869E+01 0.000000000000E+00 2.986965495828E+03
 -5.624588865122E-01 3.358602933214E-01 0.000000000000E+00 -1.106403745211E-01 7.965055773415E+00 0.000000000000E+00 1.049156826652E+01 -7.492341298418E+00 0.000000000000E+00 7.731023634392E-02 1.052043970982E+01 0.000000000000E+00 -4.663220111454E+00 1.461494149265E-01 0.000000000000E+00 -4.242251047270E+00 8.650075738343E+00 0.000000000000E+00 1.880133781555E+00 -1.213365399801E+00 0.000000000000E+00 -1.053013427505E+01 5.519960618135E+00 0.000000000000E+00 1.373430791557E+00 -7.674938742940E+00 0.000000000000E+00 7.901103107253E-01 7.424325011731E+00 0.000000000000E+00 2.222083476389E+01 9.252336097705E+00 0.000000000000E+00 -5.522930582534E+02 -8.663415134149E+02 0.000000000000E+00 -1.269085229791E+01 1.257855295498E+01 0.000000000000E+00 4.232372788160E+02 -7.515255858404E+02 0.000000000000E+00 -1.059800045550E+02 2.280100890449E+01 0.000000000000E+00 7.874427330226E+01 2.949187124613E+00 0.000000000000E+00 7.045682550442E+01 2.535824332155E+03
 0.000000000000E+00 0.000000000000E+00 0.000000000000E+00 0.000000000000E+00 0.000000000000E+00 0.000000000000E+00 0.000000000000E+00 0.000000000000E+00 0.000000000000E+00 0.000000000000E+00 0.000000000000E+00 0.000000000000E+00 0.000000000000E+00 0.000000000000E+00 0.000000000000E+00 0.000000000000E+00 0.000000000000E+00 0.000000000000E+00 0.000000000000E+00 0.000000000000E+00 0.000000000000E+00 0.000000000000E+00 0.000000000000E+00 0.000000000000E+00 0.000000000000E+00 0.000000000000E+00 0.000000000000E+00 0.000000000000E+00 0.000000000000E+00 0.000000000000E+00 0.000000000000E+00 0.000000000000E+00 0.000000000000E+00 0.000000000000E+00 0.000000000000E+00 0.000000000000E+00 0.000000000000E+00 0.000000000000E+00 0.000000000000E+00 0.000000000000E+00 0.000000000000E+00 0.000000000000E+00 0.000000000000E+00 0.000000000000E+00 0.000000000000E+00 0.000000000000E+00 0.000000000000E+00 0.000000000000E+00 0.000000000000E+00 0.000000000000E+00 0.000000000000E+00
 3.909905291057E+00 -4.614701182666E-01 0.000000000000E+00 -1.233671271459E+03 4.237631335776E+02 0.000000000000E+00 -3.753907994878E+01 3.748894925605E+01 0.000000000000E+00 7.848330029622E+00 -4.641658991342E+01 0.000000000000E+00 1.575694630814E+01 3.756459833321E+00 0.000000000000E+00 6.086596406897E+01 -3.305679525223E+01 0.000000000000E+00 -1.876520178945E+01 -2.403384259707E+00 0.000000000000E+00 2.250222105800E+01 2.062427403634E+01 0.000000000000E+00 3.960666478776E+00 2.257217636371E+01 0.000000000000E+00 -3.444640799279E+00 -1.863000824618E+01 0.000000000000E+00 -7.118472151583E+01 -3.324467924648E+01 0.000000000000E+00 6.929566541867E+01 6.947926850595E-01 0.000000000000E+00 4.094104218037E+01 -3.446506745539E+01 0.000000000000E+00 -1.145008733930E+03 -3.139416562542E+02 0.000000000000E+00 6.119317090760E+01 -6.800308451600E+01 0.000000000000E+00 5.854326185280E+00 -1.095861895465E+01 0.000000000000E+00 6.580233843680E+01 -1.024166952114E+01 0.000000000000E+00 2.655046868897E+03
 -8.690753780203E-01 1.155567763828E-01 0.000000000000E+00 4.576477174447E+02 -7.374283667290E+02 0.000000000000E+00 8.590581028349E+00 -8.435819778184E+00 0.000000000000E+00 -1.686499887751E+00 1.050464187161E+01 0.000000000000E+00 -3.618211738345E+00 -8.016419103712E-01 0.000000000000E+00 6.241411396190E+01 6.918262919241E+00 0.000000000000E+00 4.132947554915E+00 4.590236105232E-01 0.000000000000E+00 -4.278459801496E+01 6.291662489592E+01 0.000000000000E+00 -7.870531632513E-01 -5.231353183977E+00 0.000000000000E+00 7.798625160440E-01 4.370350875052E+00 0.000000000000E+00 1.640379929133E+01 7.606167424193E+00 0.000000000000E+00 -1.559452829411E+01 -1.555931480153E-01 0.000000000000E+00 -9.429717473162E+00 8.028973165474E+00 0.000000000000E+00 -3.865528194704E+02 -6.858229520925E+02 0.000000000000E+00 -1.415324547028E+01 1.564609826736E+01 0.000000000000E+00 -5.807052984860E+01 2.637702420236E+00 0.000000000000E+00 1.240236775791E+01 5.261203175743E+01 0.000000000000E+00 9.599400807166E+00 2.816445536354E+03
 0.000000000000E+00 0.000000000000E+00 0.000000000000E+00 0.000000000000E+00 0.000000000000E+00 0.000000000000E+00 0.000000000000E+00 0.000000000000E+00 0.000000000000E+00 0.000000000000E+00 0.000000000000E+00 0.000000000000E+00 0.000000000000E+00 0.000000000000E+00 0.000000000000E+00 0.000000000000E+00 0.000000000000E+00 0.000000000000E+00 0.000000000000E+00 0.000000000000E+00 0.000000000000E+00 0.000000000000E+00 0.000000000000E+00 0.000000000000E+00 0.000000000000E+00 0.000000000000E+00 0.000000000000E+00 0.000000000000E+00 0.000000000000E+00 0.000000000000E+00 0.000000000000E+00 0.000000000000E+00 0.000000000000E+00 0.000000000000E+00 0.000000000000E+00 0.000000000000E+00 0.000000000000E+00 0.000000000000E+00 0.000000000000E+00 0.000000000000E+00 0.000000000000E+00 0.000000000000E+00 0.000000000000E+00 0.000000000000E+00 0.000000000000E+00 0.000000000000E+00 0.000000000000E+00 0.000000000000E+00 0.000000000000E+00 0.000000000000E+00 0.000000000000E+00 0.000000000000E+00 0.000000000000E+00 0.000000000000E+00