#BIOSYM hessian 1
@Type: Hessian Update
@Units
 distance: 	A
 energy: 	Kcal/Mol
#header
@natom 67

#label
C1      C2      C3      C4      C5      C6      C7      C8      C9      C10     C11     C12     C13     C14     C15     C16     C17     C18     C19     C20     C21     C22     C23     H24     C25     C26     C27     C28     C29     C30     C31     C32     C33     C34     C35     C36     C37     C38     C39     C40     C41     C42     C43     C44     C45     C46     C47     C48     C49     H50     H51     H52     H53     H54     H55     H56     H57     H58     H59     H60     H61     H62     H63     H64     H65     H66     H67

#element
C  C  C  C  C  C  C  C  C  C  C  C  C  C  C  C  C  C  C  C  C  C  C  H  C  C  C  C  C  C  C  C  C  C  C  C  C  C  C  C  C  C  C  C  C  C  C  C  C  H  H  H  H  H  H  H  H  H  H  H  H  H  H  H  H  H  H 

#matrix
201
 2.784509902520E+03
 -2.557942362542E+01 2.817551426250E+03
 2.347201140935E+01 -5.886288526302E+00 1.935911886529E+02
 3.943474744587E+01 6.722537924477E+01 -3.295996062539E-01 2.791419801579E+03
 -7.437870058412E-02 -5.499478096207E-01 1.162502264588E-01 -2.459640532062E+01 2.768679828666E+03
 8.578061242105E-02 5.004187858812E-01 8.420680328707E+00 2.044238177988E+01 -1.588137343908E+01 1.914730812497E+02
 -1.992067545876E+01 3.566127133963E+01 -5.528823264748E-01 3.287709987157E-01 -1.838280462404E-01 1.784869336333E-01 2.798432989572E+03
 -3.408357981961E+01 5.860491038204E+01 -9.316919148717E-01 -5.669760647291E-01 5.837739954728E-01 -1.063769226512E-02 -2.014813199424E+01 2.815133692112E+03
 -1.524964306133E-01 3.186384204148E-01 7.627883814745E+00 -6.927684697687E-01 8.695082047529E-01 -3.643641252156E-01 4.226148729530E+01 1.084076252193E+01 2.257395411123E+02
 3.804087381691E+01 -6.790484246950E+01 7.745665921115E-01 -1.976067987199E+01 3.481713829000E+01 -4.429989997219E-01 4.028479786336E+01 7.404737294249E+01 -1.577586372376E+00 2.783900889808E+03
 -4.301545506238E-01 1.102815982925E+00 -1.903193488303E-01 -3.356379755776E+01 5.901126923259E+01 -6.964729013946E-01 -2.654570366749E+00 3.978444915796E+00 1.260088874602E+00 -2.658579719366E+01 2.837258531346E+03
 5.405546244412E-01 -8.147056613711E-01 9.121887200797E+00 1.257425947561E-01 -4.922177980679E-01 9.125151809768E+00 3.218251403837E-01 2.173921250917E+00 1.023488663564E+01 2.654048293496E+01 -1.780511627816E+01 1.973758708680E+02
 -8.729307140906E-01 1.546051574873E+00 6.137928551501E-02 -8.249932254285E-01 2.932122980077E-01 -1.240109199577E-01 4.005517260489E+01 -6.988872585097E+01 6.256717464873E-01 -2.431769785649E+01 3.381096845631E+01 -1.524939392079E+00 2.635031661218E+03
 2.953121459541E+00 -2.711948881562E+00 4.465420474318E-01 2.158349828301E+00 -1.238272401821E+00 -2.535423868634E-01 8.294918711045E+00 -7.201100537662E+00 3.574627284769E+00 -3.077928703057E+01 7.057949188976E+01 -1.920068883064E-01 -2.175752221429E+02 2.866506341183E+03
 5.399855113338E-01 -7.278761618564E-01 1.004750919526E+00 8.533521910470E-01 -1.354251220569E+00 -6.564444764658E-01 -2.000528149519E+00 -3.833381109911E+00 6.436973649414E+00 -2.441969546602E-01 2.163867171140E-02 1.137797622611E+01 4.206472176919E+01 -3.336572336170E+01 1.836974163575E+02
 -1.230348873595E+03 4.474719466877E+02 -1.090290616172E+01 -4.645289225751E+02 -6.650585749083E+00 -2.896543124658E+00 6.936277994400E-01 -7.578207108225E-01 3.761483540846E-01 7.513360415192E-01 1.273460245100E+00 3.763567410481E-01 1.454017582129E+00 -4.285083949562E+00 9.253926772621E-02 2.822132487796E+03
 4.422066395092E+02 -7.390742312456E+02 5.756692745349E+00 -5.495488320489E+00 -1.433112714747E+03 7.430732152000E+00 1.671819423418E-01 -1.774544123686E-01 1.574496027316E-01 1.075842997673E-01 -4.452135665844E-01 -1.504295532470E-01 -7.581526828375E-01 1.578069998319E+00 -3.530716560205E-02 -4.031161713217E+00 2.780398683068E+03
 -1.111900028438E+01 5.872602029854E+00 -8.290321334377E+01 -3.022669091072E+00 7.374075931620E+00 -8.118108374925E+01 -2.080162226403E-01 -6.390833007039E-01 3.386331330269E+00 -2.864849098051E-02 1.909974352936E-01 -1.003070215955E+01 7.244349425436E-01 -3.288080608704E-01 4.976597593999E-01 1.996004877059E+01 -1.268920776586E+01 1.934478655340E+02
 -1.193110487009E+03 -4.117428490266E+02 -1.072480417429E+01 -1.787752373420E-01 7.078463754126E-02 1.951808382134E-01 -1.263590651501E+03 4.497662845112E+02 -1.760222996507E+01 -4.830565738858E+02 -7.029485022886E+00 -4.237355156491E+00 7.439297882919E-01 1.216212664692E+00 1.369510213614E+00 -1.937565134288E+01 -3.331719651932E+01 -6.839639728915E-01 2.818952929351E+03
 -4.110114219144E+02 -7.029314130858E+02 -1.420201262994E+00 9.553895413934E-01 -1.030955068733E-01 -1.543425683579E-01 4.517061868310E+02 -7.440107392186E+02 7.306841376320E+00 -8.016714098830E+00 -1.512147674766E+03 8.613255887569E+00 4.072648394820E-01 -6.308681669189E+00 -5.592354988052E-02 3.336900511953E+01 5.876796705987E+01 9.098123401822E-02 -3.195166621525E+01 2.840928627287E+03
 -1.041204035933E+01 -1.784622479963E+00 -8.229110759787E+01 2.807788916721E-01 2.798923630398E-02 -8.791519206004E+00 -1.986613884522E+01 8.402855890009E+00 -8.471717570843E+01 -4.355219792610E+00 7.876138231767E+00 -8.601776247480E+01 -1.154889265276E+00 1.982327464792E-01 -6.571587619054E+00 -1.047083882702E-01 -5.016710974590E-01 8.403262604026E+00 3.303567100352E+01 -1.494884164565E+01 2.008225241378E+02
 3.017921205681E-01 -1.480772323474E-01 1.748517212034E-01 -1.220088948563E+03 -4.201299532339E+02 -6.653516550319E+00 -1.090001460517E+00 1.235530415635E+00 4.245696030012E-01 -1.225515573606E+03 4.404708578337E+02 -1.434298265287E+01 1.025799967960E-01 -4.565810308801E-01 6.168847472865E-01 3.700795600981E+01 1.236759699460E-01 3.174358987374E-01 4.130877295839E+01 -4.159086306009E-02 7.679651415023E-01 2.806922154923E+03
 -9.058697967179E-02 -3.569055653998E-01 7.035144539344E-02 -4.222659232918E+02 -7.065070149377E+02 1.057599200600E+00 1.624136955325E+00 -2.146566791289E+00 -9.207647866259E-01 4.400059281698E+02 -7.350634456060E+02 9.698523907360E+00 1.190713779408E+00 -2.902752224663E+00 3.340461657467E-01 -6.705376605150E+01 5.178639834864E-01 -8.906832246976E-01 7.072973936734E+01 -9.764182007392E-01 5.329945173813E-01 -5.785571791696E-01 2.808419766613E+03
 7.281063104172E-02 1.796925192566E-01 -8.297453083656E+00 -6.393226924663E+00 1.192151635653E+00 -8.281294819081E+01 -6.743287715709E-01 -8.226092292065E-01 1.550507612659E+00 -1.453296659463E+01 8.939847390205E+00 -8.501012407870E+01 5.820779684591E-01 1.048582621104E-01 9.279074337529E+00 3.462859837153E-01 -7.504565871885E-02 1.045947754930E+01 -5.327376566803E-01 -1.971927741001E-01 9.902676849587E+00 2.383474210056E+01 -2.230929456512E+01 1.983095746794E+02
 1.641135936658E+00 -3.829907508115E+00 1.057547947745E+00 -1.061790410945E-01 1.775514661449E-01 -6.812814884237E-02 -1.168987234143E+03 -4.362642493376E+02 -2.310660286993E+01 8.657059886992E+00 1.315472909562E+01 2.972698486894E-01 -5.139755877880E+02 -3.681816759921E+01 -2.828844762536E+00 -4.634986251328E+00 -1.084583193856E-01 4.987993899033E-01 -1.708476855083E+01 -3.987672652222E+01 1.699782979212E+00 3.884012730207E+00 -6.771847662367E+00 2.068857813885E+00 2.696181196998E+03
 -3.798036552809E+00 2.651136334095E+00 -1.243962321376E+00 -2.141223878606E+00 -3.743799377550E-01 8.176583208556E-01 -4.371220135869E+02 -7.037479161554E+02 -2.206378653284E+00 -7.691942127556E+00 -1.303794422032E+01 -3.408468123729E-01 -5.921701437839E+00 -1.581385723165E+03 2.225077524992E+01 7.100053323224E+00 -1.956124133813E+00 -7.143939091472E-01 3.565091927610E+01 6.828541694382E+01 -3.969658230365E-01 7.076155714366E-01 6.078761632490E+00 -2.637457780060E+00 3.622662573211E+01 2.817324137800E+03
 8.466921036283E-01 -1.213899208361E+00 5.828973588480E+00 1.200457372356E+00 -5.370299870026E-01 -1.397591252824E+00 -1.713031653690E+01 -1.436202544455E+01 -9.951042959310E+01 4.541486038851E+00 3.376161629637E-01 -9.029075938945E+00 -4.197832072013E+00 7.580010474824E+00 -9.053204900095E+01 -1.900829031037E+00 1.504027093296E+00 1.533520460753E+00 -4.350412590192E+00 5.275698994286E-01 6.558513638252E+00 -2.190025063969E+00 -1.318381181996E-01 2.607230673378E+00 4.854993241603E+01 -3.890998533030E+01 3.264542069354E+02
 9.627167016575E-01 -1.247408001883E+00 3.501111332407E-02 8.611567516413E-01 -1.903236729438E-01 5.089701698765E-02 5.274343994226E+00 -5.743897215156E+00 1.042054840397E+00 -1.191330213212E+03 -4.116519487678E+02 -8.647834976325E+00 -1.322628221901E+03 4.846898808071E+02 -2.363168804545E+01 -2.035516828577E+00 8.080104998907E-01 -1.310608055212E-01 3.844064013990E+01 -2.357958037320E+00 1.415400716510E+00 -1.981629638350E+01 -3.417253265310E+01 1.187024224085E-01 2.298759459963E+01 2.394628390628E+01 -7.277222029436E+00 2.869371844091E+03
 -1.094339835228E+00 2.274127426658E-01 -1.951619785918E-01 -8.420625913503E-01 4.086960670627E-01 -6.934469386360E-02 -8.249328625752E-01 -1.975142705570E+00 1.071473566773E+00 -4.087407046079E+02 -7.109376134920E+02 2.023716673859E+00 4.961975403641E+02 -8.097623327013E+02 1.554201864835E+01 1.340360115349E+00 -8.450202614391E-01 -1.951013683248E-01 -6.800283599483E+01 2.739075256946E+00 -2.848755965561E+00 3.592933077150E+01 5.811040047788E+01 -7.842148159543E-01 8.885882927138E+01 -1.144516176045E+01 6.853610571638E+00 -9.546177117117E+01 2.847181326528E+03
 -2.135462273476E-01 2.467976926071E-01 3.450536629761E+00 -4.086050879600E-01 5.935406076622E-01 5.613889423853E+00 6.208016665992E-01 3.508104459105E-01 -7.247820244891E+00 -8.660703337046E+00 6.815059564060E-01 -8.586487994074E+01 -2.061075794072E+01 1.177991194294E+01 -8.794315205865E+01 -1.830406258489E-01 -3.074677272296E-02 -6.324211859122E-01 9.218110930606E-01 -6.069927073775E-01 1.304674979872E+01 -5.742627971975E-01 -8.224512694542E-01 6.283261190062E+00 -5.237015176949E+00 3.757589932758E+00 4.623570909650E+00 3.536131000729E+01 -2.896162088020E+01 1.938968656352E+02
 -1.014397468861E-01 1.122687037565E-01 -2.560605760434E-02 -9.141339912299E-02 3.834459881524E-02 -4.681518344081E-02 -1.323292620091E-01 2.246177213122E-01 2.037820010532E-01 -1.224148286317E-01 -2.428151502579E-01 1.610036014017E-01 -3.503155139679E-01 1.264519067150E+00 -3.892781317063E-03 1.586034468013E-01 -9.000094176332E-02 -1.477502195687E-01 -6.968167303914E-02 2.412117431410E-01 -1.431112013612E-01 -5.141127629703E-03 1.599387481668E-01 -1.858729827229E-01 9.902067539861E-01 -1.676775382997E+00 4.595406706943E-01 4.333381841977E-01 -2.284705495918E-01 -1.275961992687E-01 2.810011410250E+03
 1.767083869118E-01 -6.089483914721E-02 -9.377364239628E-02 2.032703331505E-01 -8.930175468517E-02 -1.567601171892E-02 -2.545963699875E-01 4.239332937239E-01 6.944668448179E-01 1.636940370167E-01 1.171001338225E-01 1.690449531589E-01 3.945729116407E-01 -1.098792425434E+00 -8.328371778741E-01 -1.493979949037E-01 9.896043845828E-02 -5.108385822678E-02 -7.020947053187E-02 -2.821353049811E-01 -2.963685171051E-01 -2.552287482816E-01 5.188918462175E-02 -1.992416580518E-01 1.227781567352E-01 1.281904195566E+00 -2.267460492898E-01 -4.253339701884E-01 7.447975267175E-01 1.063445706197E-02 2.102592487730E+00 2.800240929059E+03
 -1.238792745915E-02 3.782323338778E-02 -1.285073207958E-01 -1.656614298253E-01 2.102211391625E-01 2.179784982185E-01 2.478736771435E-01 -4.240054395102E-01 9.999399246326E-01 5.012578786386E-02 1.884894324632E-01 -5.177160602407E-01 5.719817224381E-01 -2.457927093805E-01 -3.654359876782E+00 -1.074142717410E-01 1.061226284101E-01 4.612247576287E+00 -2.410836886082E-01 4.815359962484E-02 -7.645918623991E-01 -5.111267915084E-02 -1.530846745930E-01 -5.629454550644E-01 -7.486548254084E-01 7.021833535158E-01 -6.601374666624E-01 -2.168110709785E-01 1.276290783526E-01 1.996963602963E+00 1.864253028265E+01 -1.097581493661E+01 1.945554288401E+02
 -4.074984580216E-02 -5.417070493024E-02 -1.572711383121E-03 -4.860496947179E-02 5.199758870491E-03 -2.893319788753E-02 4.637765683176E-01 -4.198042636926E-01 6.161754977821E-01 3.530091034885E-02 2.365654434051E-01 2.261542731227E-01 8.107349772977E-02 -2.651094991927E-01 -6.232428242562E-01 -4.609883100279E-02 1.550304543794E-02 -1.064383015593E-01 1.179834658069E-01 -3.949220645285E-02 -1.765471043626E-01 6.654094205279E-02 -1.382852238378E-01 -2.978502839260E-01 -1.840940400607E+00 5.377560085286E-01 3.885157297911E-01 -1.588770599616E-01 -1.136139721756E-01 1.138563447552E-02 4.152862951422E+01 7.179513933153E+01 -4.326303131133E-02 2.781814464551E+03
 5.753163968478E-02 -3.054391836574E-02 -6.398292139647E-03 1.259437516326E-01 -7.567006753921E-02 -3.022965044263E-02 -3.387796362120E-01 3.741625462494E-01 2.496059700645E-01 -2.817121137339E-02 -8.766951267410E-02 -6.990884814137E-03 -1.468475254674E-01 -1.099863849159E-02 -9.401185189330E-02 -4.254811754629E-02 5.267837914435E-02 5.273565815741E-03 1.252437965280E-02 -8.124950385825E-02 -1.887771435440E-02 -7.668110633203E-02 4.087562024902E-02 2.429116776499E-02 1.112580786094E+00 -2.668107450619E-01 2.277029663347E-02 1.416865518417E-01 1.109797726435E-01 -3.154246762729E-02 -9.228079377583E-01 -1.751912274273E+00 6.181998469682E-02 2.781393819448E+02 2.859880032360E+03
 -1.778059324402E-01 1.061772030457E-02 3.218399516816E-01 1.307486050312E-01 -1.511978917776E-01 9.349593541552E-02 -5.851780150221E-01 3.668249809782E-01 -4.749440087591E+00 -3.386195833869E-01 -6.934171793036E-01 -1.104461503478E+00 -1.062704379241E+00 3.034353975634E-01 6.686044626929E+00 1.443575140797E-01 -2.519380963399E-01 4.261523294551E-01 5.962184147311E-01 -2.298589900958E-01 3.346353619037E+00 5.002118928518E-01 -5.461055190194E-02 2.082532265834E+00 3.346618556473E+00 -1.977547827680E+00 -1.549256423929E+00 1.095693306786E+00 -1.611665219874E+00 -4.293974844365E-01 1.116669890747E-01 1.803524243972E-01 9.785689769284E+00 1.538139387160E+01 -8.475819590557E+00 1.528997719361E+02
 -2.038905076138E+01 -3.421311558430E+01 -9.626360209660E-03 3.830396636771E+01 -1.882562054054E-01 3.055744703642E-01 -6.971356618665E-01 7.217139359395E-01 -3.976825183170E-01 -2.708472930416E-01 -6.445611447130E-01 2.028405380347E-01 -8.460706317072E-01 2.520394411215E+00 6.201344392577E-01 -1.246112720210E+03 -4.337372155083E+02 -6.799137645390E+00 -1.873065661836E-01 4.859591401841E-01 -4.281902993775E-01 -9.441511390685E-02 4.156793604246E-01 -1.276849355994E-01 3.794799806337E+00 -3.528902080501E+00 6.390527907156E-01 1.007729631241E+00 -1.985444683472E-01 -5.489497610663E-01 -1.945203352914E+01 3.411747515174E+01 -4.846122465576E-01 6.166999013231E-02 1.401734351775E-02 -9.075260372981E-02 2.776679953439E+03
 3.588005016375E+01 6.086721167718E+01 -8.268127457147E-02 -6.776175844233E+01 3.210510667163E-01 -4.758157743165E-01 -9.985055525825E-01 1.291494178293E+00 8.128238170369E-01 -1.495793267763E-01 -3.857981664646E-01 -1.499032166184E-01 1.425601036085E-01 3.376445237896E-01 -1.436108301810E+00 -4.382658568724E+02 -7.247539515386E+02 -1.773122143068E-01 -1.678627534297E-01 -3.103810087989E-01 -1.959907799570E-01 -3.270602349639E-01 1.898348780340E-01 8.689610951595E-02 3.579544299138E+00 -1.431719018454E+00 3.881538152591E-02 3.274169421658E-01 4.459078378258E-01 5.929902163775E-01 -3.248355463672E+01 5.706923682492E+01 -2.502851173434E-01 7.327250848689E-02 -1.093741562024E-01 -4.431774484643E-01 1.722526924631E+01 2.806155387262E+03
 -3.754586032177E-01 -5.695343545346E-01 9.719836458068E+00 6.194719467428E-01 6.112341347802E-02 9.280285438392E+00 1.060133809209E-01 -2.647585077143E-01 1.298774558157E-01 -3.148798679432E-02 1.091991137410E-01 -4.605502737752E-01 -1.888193520126E-01 -1.926744360911E-01 1.583751211622E-01 -6.951186802783E+00 -2.873615880982E-01 -8.325344414373E+01 1.864392194674E-01 2.785986638878E-02 5.711512603638E+00 8.634400683526E-02 -1.381990950767E-01 4.409357065783E+00 3.523844530529E-03 1.034215455396E+00 -1.691843982587E+00 1.076337028547E-01 -3.922897000310E-01 1.320287194623E+00 -6.684102087173E-02 -3.621813820751E-02 8.794121926374E+00 -7.728475522014E-02 1.224383998642E-02 6.646986900099E-01 1.846883733862E+01 -1.085306826788E+01 1.918045259364E+02
 -1.997725147359E-01 -4.447424432843E-03 4.670174795981E-03 -1.905082023091E+01 -3.148253127890E+01 -4.543524540244E-02 2.937961025720E-01 -5.138711086991E-01 6.215399542599E-01 -1.658375221300E-01 1.209970875141E-01 -7.787793447735E-02 -3.684335130094E-01 9.139538267187E-01 -2.483282793442E-01 -1.603545280851E-02 -4.889455964605E-02 1.029743561682E-01 1.730757657274E-01 1.066575625159E-01 9.536554906068E-02 2.760931877834E-01 -2.231311963332E-01 -5.961386810038E-02 -8.296775004426E-01 -7.873854236170E-01 7.009624245053E-01 4.087042406033E-01 -7.938449152078E-01 2.690802996511E-01 3.949521058857E+01 -6.917219514832E+01 6.327622927071E-01 -2.300343077933E+01 4.024548733643E+01 -5.410870878360E-01 3.989148001502E+01 6.710938589168E+01 -1.612296164133E-01 2.772303029380E+03
 -6.705242154359E-02 1.398054428979E-01 8.807390808884E-02 3.327120631086E+01 5.567299967231E+01 -1.041514120257E-01 -8.469987378542E-01 8.634133139170E-01 -3.354769717259E-01 -3.536330165014E-01 -6.263772538889E-01 1.933412202549E-01 -9.971147273461E-01 2.596883678729E+00 1.105204718538E+00 4.745696861601E-01 1.710850383542E-01 -6.744130296515E-02 -1.162174031175E-01 6.017266794806E-01 -1.410547497827E-01 -1.156265285149E-01 3.874007452321E-01 -2.069231984145E-02 4.360252213801E+00 -3.009804324616E+00 4.255292415547E-01 9.950492386459E-01 -1.521851262990E-01 -6.755472825104E-01 -6.687644542565E-02 8.347487716417E-02 -1.425214098062E-01 -4.220892659070E+01 7.397543712913E+01 -4.559016501573E-01 -1.327480938535E-01 -3.787539946244E-01 1.362134194921E-02 -3.882113510978E+01 2.756825964105E+03
 1.462500108820E-01 9.181314901756E-02 -3.354665068450E-02 -5.920005211663E-01 -3.377905310323E-01 8.385959900733E+00 5.760729822904E-01 -1.051885723414E+00 8.689210329684E-01 1.493442740528E-01 3.463722253947E-01 -6.887853162940E-01 1.254978384199E+00 -7.367323424258E-01 -6.164083362679E+00 -2.719254154917E-01 -7.012991181340E-03 -8.511126495278E+00 -6.304019657803E-01 1.352685048676E-01 -2.007216360607E+00 -6.364288403363E-02 -1.424545856116E-01 3.544492580487E+00 -1.957988665191E+00 1.370537607396E+00 -3.231226018830E-02 -5.479512866819E-01 5.362400211076E-01 2.488109779115E+00 2.019600906961E-01 -4.583971742388E-01 1.099166923207E+01 6.078884772242E-02 6.816401589517E-02 1.041118517775E+01 2.309465616594E-02 1.007313416022E+00 8.754546787495E+00 1.536534443613E+01 -1.387881292267E+01 1.874121583421E+02
 9.576361888421E-02 -7.194321914945E-02 -5.378645450755E-03 9.601091873177E-02 -8.225241709865E-03 6.722920163854E-03 -1.375381032494E-02 -1.194596922182E-01 1.283922399665E-01 1.474175315419E-01 1.775553237578E-01 -1.531014564346E-01 3.712178625286E-01 -1.054092992769E+00 -1.022102411271E-01 -1.269984771289E-01 4.909066287284E-02 9.799324290326E-02 -3.201706383207E-02 -2.209263474677E-01 2.954706870834E-02 -2.987828762724E-02 -9.167587079251E-02 1.946341642918E-01 -5.636819768024E-01 1.242557858525E+00 -3.211156294106E-01 -4.221890690873E-01 2.983480415414E-01 5.607368637994E-02 -1.235120949219E+03 4.334919696694E+02 -9.900091279201E+00 -5.067230506043E+02 -1.605290848893E+01 -2.818503020025E+00 2.765011810746E-02 -1.082054551498E-02 -1.627172489772E-02 5.500774559710E-02 6.409870655540E-02 7.252221817987E-02 2.842252866856E+03
 -1.149424556879E-01 1.104684498465E-01 5.557184334669E-02 -2.019952269748E-01 7.822433490749E-02 3.724109428708E-02 1.640413794491E-01 -1.882596686148E-01 -4.768635688406E-01 -1.075204008524E-01 -1.609419961247E-01 -8.339396619466E-02 -1.851972556197E-01 9.032765025451E-01 4.286330565326E-01 1.595881550836E-01 -7.548035150399E-02 6.099561159699E-02 -4.601649611226E-02 2.603778720619E-01 1.038107023063E-01 1.303300886341E-01 4.620190510877E-02 8.443403162119E-02 -9.233990490447E-03 -1.154234251450E+00 1.549243502711E-01 2.605159131452E-01 -4.176357912979E-01 -1.053032526475E-02 4.355804445278E+02 -7.306498422475E+02 5.677609092931E+00 -2.601595207573E+01 -1.541449654029E+03 5.781927715031E+00 -1.016314338781E-01 4.254959019571E-02 4.275539800815E-02 -2.825941168415E-02 -8.288536289425E-02 -5.616748880689E-02 2.939282997124E+01 2.893077287387E+03
 -7.678208290845E-02 -1.349750027414E-01 -3.333326964602E-01 1.807588794054E-01 -2.225199687147E-01 1.253589072991E-01 -1.074452896340E-01 8.725202555400E-01 6.330682287849E-01 -5.686741528575E-02 -2.959325591600E-01 6.310852602378E-01 -1.005918922796E+00 6.495730327761E-01 1.460318128874E+00 2.173195308002E-01 -4.784125722519E-02 -8.145105959784E-01 5.277740674213E-01 1.213903952047E-01 1.143726441931E+00 -6.503802712053E-02 3.320940525010E-01 -9.042203759203E-01 8.790323544265E-01 -1.506413379258E-01 -1.587073719005E+00 4.739261793108E-01 -1.602936658853E-01 1.535684974447E-01 -9.944033259316E+00 5.743694795441E+00 -8.561895766450E+01 -2.732224955617E+00 5.701685034765E+00 -7.641485296388E+01 4.829837529878E-03 -1.746542386991E-01 4.708086751415E+00 4.636718593213E-02 6.614949580243E-02 -1.144430293927E+01 1.890480288767E+01 -1.042963595250E+01 1.850598932574E+02
 1.109573112208E-01 -1.706661668691E-01 -1.138542448838E-01 1.734001519615E-01 4.234646017329E-02 1.191898537972E-01 1.111766194721E-01 -2.839622228901E-01 1.727633151314E-01 1.601204146799E-01 4.325516132185E-01 -9.447123031571E-02 4.778814622019E-01 -1.582140466007E+00 -4.273944202852E-02 -1.986564876741E+01 3.470090316253E+01 -3.020339677330E-01 1.446511578872E-01 -3.599602859265E-01 1.748999061826E-01 -1.963037312223E-02 -2.354044665842E-01 1.550183171615E-01 -1.288819355531E+00 2.613164725009E+00 -6.488572062460E-01 -6.273344468030E-01 3.740199816537E-01 1.858446714885E-01 -1.221279582136E+03 -4.257985298890E+02 -6.342400488610E+00 -1.207781036052E-01 -1.118027377383E-02 2.024258575649E-01 -1.173990070564E+03 4.233994832493E+02 -9.592339676840E+00 -4.715946985071E+02 -7.887561224207E+00 -2.335014542824E+00 -1.965854584303E+01 -3.394726962675E+01 -5.263381383564E-02 2.751861920724E+03
 -1.189358997646E-01 -1.731365029201E-01 6.547449476006E-03 1.255085834812E-02 -7.118081265308E-02 -1.367969733624E-01 8.349770465136E-01 -7.547339058266E-01 -7.296595805488E-01 6.061682504104E-02 2.093551269702E-01 5.592847865482E-01 -3.599009430241E-01 1.597053496049E-01 1.195066303468E+00 -3.302659329587E+01 5.822516022087E+01 -8.284234956145E-01 2.699330159997E-01 3.054293551656E-01 5.174882743566E-02 1.803137160194E-01 -3.448394052296E-03 -4.458576079711E-01 -2.613902089999E+00 7.685434349680E-01 3.356920679861E-02 -1.308904191691E-01 -3.039065643049E-01 -7.529524131439E-01 -4.289398278427E+02 -7.138806837206E+02 -5.615142512882E-01 -5.399861900310E-03 1.310154904100E-01 1.448707467679E-01 4.249388157024E+02 -7.155636117681E+02 5.670029263619E+00 1.150903127302E+00 -1.497126218261E+03 6.692675058409E+00 3.439522010964E+01 5.955429678570E+01 3.334789041190E-01 3.260007712166E+00 2.808965433616E+03
 -4.525160229100E-02 2.027455166045E-01 5.085598819875E+00 -4.516140554421E-02 1.501863683017E-01 -8.965303868655E+00 -5.469359232484E-01 -5.080063221181E-01 -3.108311987658E+00 -2.228831430601E-01 -1.785077012893E-01 -1.215559265711E+00 8.147898260204E-02 2.010694583979E-01 3.691461940102E+00 -8.026245531781E-02 -8.997578800162E-02 1.010068830091E+01 -2.422170663280E-01 -1.031010124041E-01 9.873506793184E-01 3.795716308595E-01 -3.369361538108E-01 2.424659535783E+00 2.360410786135E+00 -1.607147895723E+00 9.103717791440E-01 3.557639415091E-01 -7.864396018338E-01 -1.121251295144E+00 -6.468245428660E+00 -4.608782137241E-01 -8.266164285899E+01 -2.076602164714E-01 -6.957932509476E-02 -8.503940903496E+00 -9.936057978599E+00 5.671161673145E+00 -8.040296734371E+01 -2.389167118009E+00 6.838985389785E+00 -8.296260311444E+01 -1.628789449720E-01 -3.521951430538E-01 9.259363397706E+00 1.824305964408E+01 -1.251683130289E+01 1.925132793668E+02
 3.138960900326E-02 6.194738701762E-02 -4.472819928840E-02 2.258798897556E-02 -3.972959506850E-02 -5.712869176136E-05 -3.308686186476E-01 4.931696938004E-01 -4.959633712130E-01 -1.721394944831E-02 -2.830797661959E-01 7.701135078179E-02 -2.154114468945E-01 6.234920063194E-01 6.241480402035E-01 1.159365805116E-01 -2.214177346601E-02 -8.653370622058E-02 -1.202897241573E-01 2.116953417877E-01 -7.730003606310E-02 -1.146144922447E-01 2.745340685799E-01 -6.822691149761E-02 1.603845372102E+00 -6.196333797355E-01 -4.559376776471E-01 1.515542514615E-01 2.422323731738E-01 -2.365539312462E-01 -5.437797172535E-02 -1.567627338289E-02 3.069818199864E-02 -1.504467207768E+03 -5.290044798925E+02 -7.062754682530E+00 -3.580011706789E-02 -5.877625455609E-02 -5.132875570382E-03 -1.278546908128E+03 4.346003797968E+02 -9.477684780242E+00 4.890515722432E+01 -1.161476469006E+00 2.680596273871E-01 3.926250945728E+01 7.033400968061E-02 1.383398031625E-01 3.073268270699E+03
 8.232231823839E-02 -2.694075762255E-02 -7.790557208195E-02 4.196394959435E-02 1.027375182894E-01 4.888291530358E-02 -8.008243426546E-05 -1.077096289613E-01 9.314377652473E-01 1.182004053546E-01 2.684562930943E-01 -4.374244992995E-01 6.469081018122E-01 -1.348015950501E+00 -1.319570449338E+00 -1.948199407532E-01 7.302382283257E-02 1.660747465794E-01 -7.630776227640E-02 -3.876512533138E-01 2.741323521031E-01 -1.863082080196E-02 -2.513581294312E-01 1.719003420825E-01 -9.674085030494E-01 1.347891471555E+00 -4.389507187920E-01 -4.094493060396E-01 1.910567192839E-01 9.773162772595E-01 -4.013045372267E-02 -5.373718655147E-02 1.988931808170E-01 -5.388099157775E+02 -8.678437155845E+02 -6.113297427340E-01 -9.908848504148E-03 9.316626684796E-02 1.182329743264E-01 4.196879217092E+02 -7.241312677652E+02 5.674177628412E+00 -8.579995849448E+01 2.117282170385E+00 -6.807702300228E-01 7.199637522089E+01 -3.073904976979E-01 6.136747332862E-01 9.108439889697E+01 2.539388771487E+03
 -3.963483559527E-02 -1.813557376698E-01 1.255569225079E-01 3.069221575905E-01 -4.475013356389E-01 4.294220591283E+00 -3.136598151528E-01 9.952544190534E-01 -2.315273620524E+00 -1.182975465112E-01 -4.929474886066E-01 1.044134851789E+00 -1.400048859299E+00 3.457036181825E-01 7.181700364422E+00 2.258494100014E-01 -1.504280168446E-01 -5.269282797657E-01 7.814282069567E-01 -1.196239785038E-01 2.008004991607E+00 1.444036142838E-01 3.717088371115E-01 6.802655413141E-01 1.267041784880E+00 -1.167968679647E+00 2.158119136746E-01 5.999311232790E-01 -4.764045460897E-01 -3.194964415470E+00 5.311605415371E-02 -1.503389969954E-01 -1.206274351157E+01 -7.326458836912E+00 -6.136545354271E-01 -6.785274334464E+01 2.590914909288E-01 -4.672191905430E-01 4.618363564176E+00 -9.398469523544E+00 5.957580413529E+00 -7.909599952253E+01 5.381525057512E-01 1.492090591593E-01 1.202504658843E+01 -2.847817710297E-01 5.732127634568E-01 1.038759137190E+01 1.856511799257E+01 -8.490841869325E+00 1.542387040274E+02
 5.114191548437E-01 2.295396318969E-02 1.873574637375E-01 -1.226935435281E+03 4.458596819368E+02 -1.120339094669E+01 -1.256710442788E+00 1.159146092768E+00 -4.051340119473E-01 1.904123616810E-01 -2.572861101874E-01 -8.390594852785E-01 4.895685771073E-01 -1.782753903785E+00 4.706212609641E-01 4.017658420636E+01 1.154840964137E-01 8.366009384198E-01 -5.182860548555E-01 -3.656680590059E-01 1.575011041175E-01 -2.021341831626E+01 3.590180157293E+01 4.595663627362E-01 3.842108368105E+00 1.120948247142E+00 -1.372959054179E+00 -4.001185664885E-01 1.313600138618E+00 -9.161935929119E-02 1.551602345081E-02 -3.927746293962E-01 4.658395667017E-02 6.104521778346E-02 -1.454589754610E-01 5.716050687723E-01 -8.808151314289E-02 -4.627186300674E-01 2.417576546974E-01 -1.138307340260E+03 -3.894632827960E+02 -4.487280723129E+00 -7.032609401743E-02 2.539469521121E-01 -3.385418323473E-01 3.667288201130E+01 1.375666703688E-01 8.232567990271E-01 -1.783983349967E+01 -3.260051738652E+01 -1.649321969282E-01 2.729445569434E+03
 3.578909826508E-02 -2.008931996438E-01 -5.304921837343E-02 4.555742908360E+02 -7.421515058919E+02 8.077289951112E+00 1.321458676295E+00 -1.557000270695E+00 -8.830374715773E-01 5.549043776667E-01 8.002814397778E-01 5.088538998601E-01 7.875723079519E-01 -2.156675827054E+00 1.038207325765E+00 6.686116262646E+01 -5.685554814254E-01 3.411500393310E-01 1.867439987898E-01 -1.937534183638E-01 -6.811456151818E-02 -3.309480769623E+01 5.917675597625E+01 -7.464737483317E-01 -5.550420570847E+00 4.195469167088E+00 -5.868194880612E-01 -1.436284266456E+00 3.341406321196E-01 -7.432419268342E-01 8.122571508530E-02 7.785051445299E-02 -2.107635935889E-01 -1.027597125684E-01 9.234478760792E-02 2.028755473549E-01 1.788940203042E-01 2.864575296228E-01 -9.674558981720E-02 -3.878223570212E+02 -6.696497138320E+02 1.321907579798E+00 -3.248123146271E-02 -8.582795020385E-02 2.609323629318E-01 -6.512963464199E+01 9.179788665495E-02 -4.550863665881E-01 3.148422795805E+01 5.746528019422E+01 4.137516064363E-01 -8.783664913685E+00 2.821129818667E+03
 -5.433098596132E-02 3.798459625697E-01 5.178706000866E+00 -1.206538617076E+01 8.411439104417E+00 -8.284654059656E+01 1.874822436843E-01 -6.860937824660E-01 -2.324036564148E+00 6.202076087955E-02 3.617707149770E-02 4.055608705657E+00 1.156902915018E+00 -6.288230980462E-01 -8.369784141735E-01 -8.266155209788E-02 -4.216762870391E-03 9.872817344506E+00 -6.086883852325E-01 -3.375596708302E-01 -1.258674572160E+00 -8.648222984462E-03 -2.648651041489E-01 1.092196512487E+01 -8.397174594248E-01 -1.657451674644E+00 2.391888472849E+00 -2.919261881827E-01 -1.623554118239E-02 -7.617512571286E-01 1.810036872327E-02 6.765054691996E-02 4.525191469406E+00 -1.731906008241E-01 6.812696607663E-02 5.206582943788E+00 -4.144262644143E-02 -2.252147326439E-03 -9.257736622155E+00 -4.075933934183E+00 1.412348034673E+00 -7.987483876931E+01 8.454382406306E-02 -8.539320412925E-02 -9.514048790544E-01 3.153360544119E-01 -1.272102832047E-01 8.803575620416E+00 -2.877963474682E-01 -2.744521419761E-01 8.853883252215E+00 1.829563577992E+01 -2.382742744621E+01 1.878391554881E+02