#BIOSYM hessian 1
@Type: Hessian Update
@Units
 distance: 	A
 energy: 	Kcal/Mol
#header
@natom 68

#label
C1      C2      C3      C4      C5      C6      C7      C8      C9      C10     C11     C12     C13     C14     C15     C16     C17     C18     C19     C20     C21     C22     C23     H24     C25     C26     C27     C28     C29     C30     C31     C32     C33     C34     C35     C36     C37     C38     C39     C40     C41     C42     C43     C44     C45     C46     C47     C48     C49     H50     H51     H52     H53     H54     H55     H56     H57     H58     H59     H60     H61     H62     H63     H64     H65     H66     H67     H68

#element
C  C  C  C  C  C  C  C  C  C  C  C  C  C  C  C  C  C  C  C  C  C  C  H  C  C  C  C  C  C  C  C  C  C  C  C  C  C  C  C  C  C  C  C  C  C  C  C  C  H  H  H  H  H  H  H  H  H  H  H  H  H  H  H  H  H  H  H 

#matrix
204
 2.783281548280E+03
 -2.131269496110E+01 2.815435649842E+03
 1.576967671027E+01 -8.911642203288E+00 1.926165349183E+02
 3.776753060879E+01 5.984186881370E+01 -3.658811985195E-01 2.719425262754E+03
 -4.652867022480E-01 -5.812400269100E-01 -9.800565070822E-02 -1.447993391915E+01 2.758796362509E+03
 -1.580949179066E-01 3.982052732834E-01 8.494897426565E+00 2.662253909374E+01 -2.695889361301E+01 1.935090790772E+02
 -2.238751474167E+01 3.162012596625E+01 -9.919683718248E-02 -4.161111609112E+01 3.569978583601E+00 1.662895738383E+00 2.767249485514E+03
 -3.375800827738E+01 5.850881795918E+01 -1.460163626044E-01 -9.262632728382E+00 -9.234800871529E-01 6.516293838292E-01 -2.997915833097E+01 2.813384039792E+03
 -9.730168929966E-02 3.441021447198E-01 9.626370104446E+00 -2.668403899156E-01 1.756247415613E-01 -3.682923318194E-01 9.831937499988E+00 -4.189927323919E+00 1.949973299818E+02
 3.287931881280E+01 -7.561192668878E+01 6.615592544764E-01 -1.047947961321E+02 4.040154433222E+01 8.310609474054E-01 -1.550486594191E+01 6.545901943951E+01 -9.022021904480E-01 2.679404646743E+03
 2.491897828163E+00 4.563945709121E+00 5.123697943097E-02 2.371499776496E+01 5.688829110264E+01 -2.495974113233E+00 4.031116071545E+01 2.960967534275E+00 5.230925585725E-01 5.191656943858E+01 2.781528690128E+03
 1.809931086876E-01 -3.840762517051E-01 9.330480717037E+00 -1.566063928095E-01 1.038539324703E+00 6.073255606441E+00 -3.665207760187E+00 -7.033726773498E-01 9.577424570701E+00 2.443085718522E+01 -6.324745252765E+00 2.008236230291E+02
 -1.810417516526E+00 -1.657560004271E+00 2.282646185225E-02 -1.498383131778E+01 3.508637368331E+00 -4.643305926527E-01 1.314092880364E+01 -6.913915152646E+01 2.107417811476E-01 -4.991178215496E+01 6.003861406350E+01 -4.497863869283E-01 2.608757423189E+03
 5.831198713848E+00 7.568604013627E+00 -1.455738337427E-01 8.836177597109E+01 -6.622409173924E+00 -1.458649509751E+00 7.126635198753E+01 -5.508929748347E-01 8.051595440996E-01 7.991432263578E+01 -1.599456515701E+01 4.697740021968E+00 -1.943855985664E+02 2.776429549243E+03
 3.019485441345E-01 1.185540572884E-01 -2.769347443050E-02 1.004135066935E+00 -1.138531805861E-01 1.296696457171E+00 9.446889460140E-01 5.863770483886E-02 1.003148822347E+01 1.789876277602E+00 -1.166141712702E+00 8.473467593675E+00 6.194545315114E+00 -1.745515764742E+00 1.558803581254E+02
 -1.228809156821E+03 4.485791993869E+02 -8.370503731453E+00 -4.574995618100E+02 -9.972492407634E+00 -2.967507160896E+00 3.655331429290E+00 6.057590151951E-01 5.913307027667E-02 5.982577832870E+00 -4.455729192541E+00 7.091935905829E-01 1.387513422026E+00 -7.242935209317E+00 -4.145303193703E-01 2.820641358506E+03
 4.426313904000E+02 -7.416470583362E+02 6.289906435172E+00 -5.439415647775E-02 -1.432794772549E+03 1.274366900805E+01 3.734157506084E+00 1.421926965237E+00 -6.265920640858E-02 1.039864665115E+01 -5.173806910825E+00 -1.829083690498E-01 9.534453053165E-01 -8.794545795554E+00 -2.193142604380E-01 -1.829846685276E+00 2.780204189662E+03
 -9.144306046794E+00 6.078094461923E+00 -8.339793004359E+01 -3.901164666766E+00 1.242280051678E+01 -8.114204596760E+01 -5.046601183655E-01 -2.082499642558E-01 4.822458397816E+00 -8.459697784432E-01 7.236969563169E-01 -8.329080213134E+00 4.859633456193E-02 9.049880954403E-01 -2.968630680834E-01 1.376770623314E+01 -2.095403324321E+01 1.921846037886E+02
 -1.190756821923E+03 -4.100284111628E+02 -5.678234474804E+00 3.969790581186E+01 -1.684587234393E+00 -1.503213698899E+00 -1.233226422193E+03 4.480348210969E+02 -6.419244930619E+00 -4.200048809871E+02 -3.963040441840E+01 -5.942280044773E-01 1.548199506423E+01 -5.484076146766E+01 -1.574553411926E+00 -2.220668716328E+01 -3.812890468071E+01 4.750867787571E-01 2.782490967558E+03
 -4.146961849452E+02 -7.008660941344E+02 -8.700276703579E-01 -4.384114099131E+01 3.280513433919E+00 4.311132158372E-02 4.154301613312E+02 -7.629620845506E+02 3.370571294425E+00 -6.205184975646E+01 -1.475556858579E+03 2.788129231163E+00 -1.346251731227E+01 6.257181500979E+01 1.400542222977E+00 3.731994398540E+01 6.285054787020E+01 -3.968919700181E-01 -5.376541541522E+00 2.823572865298E+03
 -5.097957247163E+00 -7.192263241579E-01 -8.091535598295E+01 -3.240923092892E-01 4.331782015783E-02 -8.680303656256E+00 -7.267455887073E+00 4.302727868479E+00 -8.721099947110E+01 -3.611661870085E+00 2.724103771669E+00 -8.334318203661E+01 3.181619735951E-01 -5.397620340691E-01 -9.736292866449E+00 -5.521034553789E-01 -4.999185867783E-01 8.540533884223E+00 1.526508548987E+01 -6.569963466303E+00 1.954134585363E+02
 2.299399602850E+00 9.247271009929E+00 -4.474218705193E-01 -1.121575622330E+03 -4.263364241393E+02 -9.445095294024E+00 5.584065649830E+01 1.020846273906E+01 4.211395003244E-01 -1.120400060014E+03 3.589915873729E+02 -1.371548723383E+01 2.406056279280E+01 -1.169027596386E+02 -1.361891721982E+00 2.951148399408E+01 -1.001763073347E+01 1.171564577473E+00 -9.995141395036E+00 5.723083540723E+01 9.324155493020E-01 2.663170115152E+03
 -2.607115111614E+00 -2.275287827720E+00 7.220858343781E-02 -4.615468667730E+02 -6.953524654076E+02 3.208651412276E+00 -4.327017936687E+01 3.559152083009E+00 -7.217707487684E-01 3.696665735385E+02 -7.047088642061E+02 6.822000660306E+00 -3.019776441243E+01 7.645251006442E+01 1.031774169157E+00 -6.243001527903E+01 2.529201677711E+00 -1.276942542372E+00 1.005095784235E+02 -3.244611055710E+01 1.613740373979E+00 5.398315851687E+01 2.761121402109E+03
 3.364270563417E-01 -3.514840700728E-01 -9.091525913037E+00 -6.134665654041E+00 2.660498663826E+00 -8.359039430283E+01 -1.193984905433E+00 -2.798811154528E-01 5.439857704618E+00 -1.671253637025E+01 1.127178806739E+01 -8.344396429820E+01 9.060773853180E-01 4.739644161946E-02 3.802032065563E+00 7.020553894969E-01 -7.434437310459E-02 9.595540098801E+00 1.525872728506E+00 6.093740467071E-01 8.838213073916E+00 2.747473250834E+01 -3.351074795040E+01 1.965021712568E+02
 3.706826735239E+00 1.881296058644E+00 9.253639829342E-03 2.123881220146E+01 -6.131636363352E+00 2.704409718176E-01 -1.149921443758E+03 -4.193015981852E+02 -1.766549266779E+00 4.763655848247E+01 -3.621779153023E+01 1.925494672233E+00 -4.626404708776E+02 -4.330789394062E+01 -1.131272821052E+00 -2.460381386895E+00 -1.127502276451E+00 -1.000966775506E-01 -4.576310598152E+01 -7.622863333198E+00 -5.715595702453E-01 -3.564578947261E+01 5.596738085349E+01 -7.877548004241E-01 2.719177525314E+03
 -5.152019862646E+00 -6.503791775224E+00 6.125530613038E-02 -6.335408708009E+01 6.730740999942E+00 3.373041577279E-01 -4.820106418178E+02 -6.909564055730E+02 -4.975115011480E-01 -8.936610550537E+01 6.585074942221E+01 -2.533355882352E+00 -1.142474326340E+01 -1.523025291253E+03 3.594804414305E+00 5.287805090391E+00 6.499476499523E+00 -4.212695672251E-01 7.909626849964E+01 1.114274144497E+01 2.415023343738E-01 8.678500276660E+01 -6.992059786707E+01 4.290153656319E-01 5.264162043328E+01 2.852283300483E+03
 -9.861247493539E-02 -6.842249866417E-01 4.405955682366E+00 -5.416187698537E+00 5.796556316353E-02 -1.273722238128E-02 -3.918635803912E+00 -4.943642112764E-01 -8.243748534780E+01 -5.192513391980E+00 3.192703569170E+00 -9.821881045673E+00 -1.759510953969E+00 8.891653987022E+00 -7.421286669104E+01 3.930712000294E-01 5.948060206150E-01 -4.654045648983E-02 2.239439776566E+00 -3.030876128471E+00 9.598466842035E+00 6.799053308103E+00 -1.710763306767E+00 8.600395872202E-02 8.910713312213E+00 -1.060963147019E+01 1.858179803558E+02
 2.794394011999E+00 3.728376079144E+00 -1.264530665407E-01 4.539611631268E+01 -1.297661611535E+00 -1.617950066989E+00 2.621330719029E+01 4.453068582070E+00 4.763849547508E-01 -1.145118371114E+03 -4.545571728287E+02 -4.438359676231E+00 -1.325021287423E+03 4.263425245167E+02 -5.371864651666E+00 -3.784519275502E+00 -4.806318770529E+00 8.443978628661E-01 1.149129849189E+01 2.896799987346E+01 1.568303366097E-01 -7.339351478290E+01 -4.425007779075E+00 5.485481068367E-01 2.529778500976E+01 4.655500078474E+01 2.908638997929E+00 2.782480417595E+03
 -5.928764900618E+00 1.115184981534E+00 -1.430402394831E-01 -5.134205696661E+00 6.522355773435E+00 9.890416714203E-01 -4.691482091563E+01 1.507098148485E+01 -5.331565820587E-01 -4.492858894329E+02 -6.586418209132E+02 -8.360024004100E+00 4.387633222861E+02 -7.669372862024E+02 -1.864661509862E+00 1.967738054586E+00 -7.764057417017E-01 4.226795252488E-02 -4.313716477030E+01 -2.546616787434E+01 5.533355438614E-01 5.198215558603E+01 -4.705806394550E+00 -4.995698558840E-01 1.709939565420E+02 -7.798165502458E+01 7.969435007091E-01 -2.944886649193E+01 2.731194907620E+03
 -2.812523802850E-01 -5.410470258214E-01 4.247875522849E+00 -4.595914382848E+00 -1.030380923892E+00 8.456302516857E+00 1.669639249337E+00 5.730485225833E-01 -1.086128888198E+01 -9.983258530951E+00 -4.167428245531E+00 -9.037273100692E+01 -2.448370607354E+00 -1.370889915368E+00 -7.676941232870E+01 -4.887519411165E-01 9.334767481513E-01 -1.011223902392E+00 2.066328389985E-01 -1.611115211354E+00 1.087634448016E+01 3.864103775541E+00 8.705858147982E-01 4.259646933408E+00 -2.966423379040E-01 -1.523417575017E+00 1.131750166222E+01 1.148229105958E+01 2.918850011590E+01 2.226621204043E+02
 -1.974757343216E-01 -1.278737687269E+00 7.512937431350E-02 -1.371218789493E+01 3.988130539620E-01 -2.136877441335E-01 -5.848060988106E+00 -2.086517714808E+00 -3.509243544969E-03 -1.389067991549E+01 9.018876839909E+00 9.135943874024E-02 -1.326817846580E+00 1.337159361357E+01 1.555414500779E-01 9.265684238687E-01 1.495315245936E+00 -1.422515457279E-01 6.353019729581E+00 -7.042720956650E+00 -8.992522490904E-02 1.699206538438E+01 -4.879411273151E+00 2.848555557732E-01 1.074077408559E+00 -8.847415814107E+00 -9.920155856790E-01 7.353905849108E+00 2.645274978689E+00 -9.666084981657E-01 2.808948771079E+03
 -5.132953246962E-03 -3.210274475786E-01 -3.442384897083E-02 -3.708037766784E+00 -4.428566431186E-02 -1.678193810695E-01 -1.068166448112E+00 -7.002063052722E-01 2.238515660252E-02 -3.602031025127E+00 2.352999995496E+00 1.562459525651E-01 1.643921560059E-01 3.329436258370E+00 6.621444476624E-02 2.527964630495E-01 3.574956156022E-01 1.153715145831E-01 1.638573839752E+00 -1.906554379038E+00 -5.413780085625E-02 4.760238304522E+00 -9.151773577852E-01 2.437587488894E-01 -5.326647484924E-01 -2.051781055392E+00 -2.788895143104E-01 2.466740145069E+00 1.720982570376E+00 -5.614330008475E-01 1.294094174508E+00 2.799482053342E+03
 3.295441294412E-02 2.795217016319E-04 -6.211678104062E-04 2.428413785075E-01 1.011812666925E-02 6.436340296911E-02 1.433965292979E-01 5.122474990368E-02 -7.430334857712E-03 2.675546899703E-01 -2.092009645920E-01 -9.331374984414E-02 -3.495712375390E-02 -2.812040535084E-01 2.964742730773E-02 -2.923181353771E-02 3.528633223714E-02 4.484157572040E+00 -1.537665247683E-01 1.657576034264E-01 1.269730155700E-02 -3.174991901307E-01 1.000373297642E-01 -6.770722470104E-02 5.695881760921E-02 1.533203063185E-01 1.765548055355E-02 -1.640371400437E-01 -7.949594347071E-02 1.287364537538E-01 3.133192283564E-01 -2.806072421762E+01 1.940415296986E+02
 4.089780290755E-01 8.231983075844E-01 2.448047539983E-02 9.574292631243E+00 -4.777936801878E-01 9.743334595487E-02 6.018114810267E+00 7.594763793239E-01 4.980622287780E-02 1.141227263565E+01 -7.726650869102E+00 1.320486349942E-01 2.803875228277E+00 -1.239424733232E+01 -1.578905268050E-01 -7.664159688455E-01 -9.419776313554E-01 9.654998403039E-02 -5.450083496516E+00 5.996206285393E+00 2.712751098089E-02 -1.236075270381E+01 6.215646967072E+00 -1.790826889924E-01 -4.669066203836E+00 9.659563791716E+00 6.101322314485E-01 -6.109667530326E+00 3.466963922176E+00 5.601992535099E-01 4.315005011535E+01 7.179134461803E+01 -1.000236338628E+00 2.781346264163E+03
 4.769582177675E-01 1.051049997599E+00 -2.640779680630E-02 1.161613831420E+01 -5.587141463921E-01 -1.263085335231E-01 7.254030881831E+00 9.483877837486E-01 7.041921766935E-02 1.368318798708E+01 -9.085674958483E+00 2.419057787152E-01 3.502081062138E+00 -1.470781599910E+01 -2.027540086314E-01 -9.098866669723E-01 -1.192010550952E+00 1.197771173730E-01 -6.529315662206E+00 7.115213675387E+00 1.162028710555E-02 -1.487909312720E+01 7.143781995778E+00 -1.075533657230E-01 -5.570632876442E+00 1.132745457176E+01 7.683129286890E-01 -7.018108016513E+00 3.905804392831E+00 4.634286776239E-01 7.947008867108E-01 -1.537364352265E+00 7.614794763552E-02 2.778512187779E+02 2.857421335794E+03
 -1.240193202681E-02 -2.487335415601E-02 1.071267674153E-02 -2.138612750928E-01 1.705332372374E-01 -5.614574151337E-01 -6.040117826595E-01 -1.617529376181E-01 9.553658530682E-02 -6.390497129539E-01 6.783580459710E-01 8.678644412868E-01 4.723445980826E-02 7.489359068917E-01 -3.320363148660E-01 1.030428207366E-01 -7.372116126516E-03 1.328535252667E-01 5.524843011543E-01 -3.108574700196E-01 -9.367019698133E-02 4.380515988461E-01 -6.190938090244E-01 5.800363720180E-01 5.403530428024E-02 -3.882009988541E-01 -1.995262626918E-02 5.989343642786E-01 -3.077498883086E-01 -1.053803199459E+00 -5.235101555454E-02 1.572757868582E-01 1.084426416777E+01 -4.082703333752E+00 -3.361874107768E+01 1.497667932771E+02
 -2.074507375966E+01 -3.538974600950E+01 1.672945176475E-01 2.445830133285E+01 4.223683763759E-01 2.587167913107E-01 -8.773713470445E+00 -1.379129366361E+00 -5.723437225391E-02 -1.659365846043E+01 1.150774223909E+01 -4.609880527368E-01 -3.976955436652E+00 1.840125248068E+01 3.837241705369E-01 -1.246173029249E+03 -4.325939443369E+02 -2.424963226551E+00 7.863918252827E+00 -8.690054748602E+00 3.299886430994E-02 1.877446456240E+01 -9.416865813918E+00 2.550300360084E-01 6.566204660018E+00 -1.407125252211E+01 -9.166942798036E-01 9.447149975643E+00 -5.046287201261E+00 -5.354155040836E-01 -2.155829011655E+01 3.388357995124E+01 -2.626036033590E-01 1.764241221101E+00 2.204504256002E+00 -8.193769383314E-02 2.773440422962E+03
 3.673567396115E+01 6.203241009241E+01 -2.594610077289E-01 -5.274169799781E+01 -7.663113914568E-01 -2.647826192574E-01 9.752466508696E+00 1.142953224775E+00 1.426047224895E-01 1.746085354867E+01 -1.191569091378E+01 4.099925720845E-01 4.717401984498E+00 -1.899414957591E+01 -1.655854910802E-01 -4.396890957823E+02 -7.237054948144E+02 2.753277681964E+00 -8.198809022910E+00 9.104493432681E+00 4.423123657075E-02 -1.947045185767E+01 9.764441618108E+00 7.494238683074E-02 -7.404969982152E+00 1.436243461013E+01 9.675591612815E-01 -8.474488273846E+00 5.321794789939E+00 2.999500110532E-01 -2.965964811839E+01 5.821820944392E+01 -7.001638703973E-01 -1.995395405816E+00 -2.343637880754E+00 1.329413541638E-01 2.464341411665E+01 2.803634171041E+03
 -1.808826204960E-01 -5.525844063111E-01 9.854573434054E+00 1.238754950932E+00 2.359668114480E-01 8.914480750613E+00 -3.618525570971E-02 -1.920020711422E-02 2.707920362578E-02 8.350488803856E-02 2.872608466457E-02 2.421802370462E-01 -4.895728087156E-02 -6.253986959873E-02 -1.022073543904E-01 -2.842347033101E+00 2.517267633853E+00 -8.282591543849E+01 -1.040418626476E-02 1.571467568269E-01 4.514262473494E+00 -3.292744805767E-01 -1.684825303770E-01 4.616191878843E+00 1.272702168714E-01 6.597763602149E-02 2.406388618686E-02 3.894248312241E-02 -3.337492874834E-01 -2.727531969418E-01 4.103442551535E-01 -6.889703569482E-01 8.836809221193E+00 7.344962768737E-02 2.575379400076E-02 4.148313520835E-02 1.026536787662E+01 -1.885437846175E+01 1.913404070874E+02
 1.187000211903E+00 8.156395893655E-01 4.892008757392E-02 -8.893515577465E+00 -3.275812604753E+01 -2.019681222178E-01 1.200445305353E+01 -1.205896776653E+00 2.279448021163E-01 1.636517174331E+01 -1.163612541663E+01 1.249708044610E+00 8.672936967977E+00 -2.121742559928E+01 -4.655433523321E-01 -1.226449431055E+00 -1.313239491957E+00 1.314228750756E-01 -8.393397753313E+00 8.788867559757E+00 -2.027936339746E-01 -1.366905625441E+01 1.437310133442E+01 2.300654241872E-01 -1.650693023280E+01 1.970572918220E+01 3.839570480517E-01 -8.208434437251E+00 1.942352103177E+01 -6.561198437097E-01 4.060935008392E+01 -6.905914480350E+01 9.555295969827E-01 -2.456379474169E+01 3.884856852813E+01 -3.283545513320E-01 4.183412613176E+01 6.458821717044E+01 -8.093708886958E-01 2.768324418635E+03
 7.214434729261E-01 5.553416041027E-01 1.213016461191E-01 4.251758355525E+01 5.590577264226E+01 -1.054227662641E+00 9.133012003333E+00 -6.019344045285E-01 1.815568827292E-01 1.340459406024E+01 -9.117826572341E+00 8.268759557611E-01 6.486936833734E+00 -1.626381867512E+01 -2.008582046291E-01 -6.543700204601E-01 -3.822527105683E-01 3.629464205260E-01 -6.588517815107E+00 7.200850251961E+00 -7.033999428138E-02 -1.183531460892E+01 1.021919818422E+01 4.621582481475E-01 -1.164967838179E+01 1.451127087547E+01 4.140000373522E-01 -5.960057849085E+00 1.280768806059E+01 -4.013922856755E-01 9.619839169008E-01 5.593084015976E-01 8.891120276198E-02 -4.292607996333E+01 7.237432802656E+01 -7.155185878435E-01 1.955019733103E+00 -2.714055097525E+00 1.726472625484E-03 -4.241082702673E+01 2.755269149952E+03
 1.678154676901E-01 -1.650475941067E-02 2.272628588177E-02 -6.902945357566E-01 -9.455106214280E-01 6.997531689915E+00 -1.249502388163E+00 -4.705351809283E-01 2.194334093494E-01 -1.228919759535E+00 1.288902769077E+00 2.104648981385E+00 1.845769220193E-01 1.426588272534E+00 -8.060817642322E-01 -3.546262143886E-02 -4.038339371176E-01 -8.547248784284E+00 1.109222063561E+00 -5.049380653900E-01 -2.284396716412E-01 8.848059044393E-01 -1.145127839118E+00 5.726272867129E+00 -6.915390883090E-02 -5.391389922904E-01 -1.234026048706E-02 1.388863699977E+00 -6.239291565142E-01 -2.540718158285E+00 -1.781015417594E-01 1.065646362674E-01 9.469407865429E+00 5.965777475058E-01 -8.362607389552E-01 1.269691854697E+01 -1.868468370608E-01 7.304995428969E-01 8.936848796221E+00 6.152646047202E+00 -3.118859432808E+01 1.860472066289E+02
 -1.031148393305E-01 2.712812502395E-01 -5.834879463791E-02 2.555521854556E+00 1.433432163249E-02 -4.471221416661E-03 8.661795838601E-02 7.375863088538E-01 -2.063609342981E-02 1.757352536361E+00 -9.203584926499E-01 -6.570342345270E-02 -7.240464608048E-01 -9.326281758045E-01 -2.461772316899E-02 -1.026399475588E-01 -3.115723046985E-01 -3.152181895702E-03 -6.709207373142E-01 7.765919227161E-01 2.501443283217E-02 -2.965717640066E+00 -6.000051933304E-01 -3.377859445460E-02 1.825316897152E+00 -1.132497399598E-01 2.271527505346E-01 -8.642247184269E-01 -3.307566079083E+00 1.872938999635E-01 -1.230914869624E+03 4.359341465616E+02 -4.592686669161E+00 -5.059373627832E+02 -2.138338646778E+01 6.094313510162E-01 3.584586254471E-01 -3.191886521201E-01 -1.731936721892E-01 8.558963417314E-03 -2.071265084115E-01 1.341969475077E-01 2.842186046037E+03
 -4.757699207078E-01 -1.067295437126E+00 6.443029950198E-02 -1.164416757222E+01 6.523351454194E-01 1.331267962325E-01 -7.380942525561E+00 -1.005188386387E+00 -6.348329631220E-02 -1.374231355974E+01 9.094232765554E+00 -1.593587992421E-01 -3.474060918024E+00 1.468364268462E+01 1.546828115411E-01 9.205645776675E-01 1.199564349533E+00 -8.327231981058E-02 6.587076256826E+00 -7.083148944415E+00 -9.503010264039E-03 1.489852567363E+01 -7.080454204783E+00 1.377639348022E-01 5.457078038591E+00 -1.120372389099E+01 -7.796938507783E-01 6.853352582937E+00 -3.737071426197E+00 -4.943845364832E-01 4.357712847669E+02 -7.351726010745E+02 7.350839379535E+00 -2.947727345098E+01 -1.539335953854E+03 1.843989155671E+01 -2.314352494981E+00 2.239957841534E+00 1.322953609211E-01 1.439442576426E+00 1.755784609526E+00 -7.955848679568E-02 2.977462076655E+01 2.891020343545E+03
 2.688857343035E-02 2.369667655635E-02 -1.030304067898E-02 2.371908394275E-01 -1.630556353494E-01 4.783183132579E-01 5.893110833301E-01 1.260444599683E-01 -8.597360272035E-02 6.490441766395E-01 -6.544409233028E-01 -7.541987246127E-01 2.153238255615E-02 -7.588116123954E-01 2.935387776230E-01 -1.025432656419E-01 1.577860204346E-02 -1.135042537477E-01 -5.213685862857E-01 3.171296429687E-01 8.035661811026E-02 -4.556637759834E-01 6.091710530170E-01 -5.007349023296E-01 -1.584331985946E-01 4.594200528491E-01 2.059558339113E-02 -5.664504307471E-01 3.435848463063E-01 9.185948312926E-01 -4.588514199773E+00 7.086163224795E+00 -8.522055717391E+01 6.820442020161E-01 1.854971384766E+01 -7.714964843328E+01 1.225176322996E-01 -6.507256148208E-02 4.468008618665E+00 -2.183644476578E-01 -2.267095480693E-01 -1.077372991111E+01 -2.534091424940E+00 -3.366015397724E+01 1.846243907514E+02
 3.622510042228E-01 1.393289094788E+00 -1.914328820867E-01 1.589890516887E+01 -9.924818556181E-01 2.515087302850E-01 8.538788512907E+00 2.003937366797E+00 4.848631855137E-02 1.756984864087E+01 -1.171602562733E+01 1.455184913676E-01 3.034251581803E+00 -1.814000141958E+01 -2.603130394736E-01 -2.065451366996E+01 3.348437099085E+01 -3.516432759947E-01 -8.132688283285E+00 9.041749053395E+00 2.917960253890E-02 -2.075241146505E+01 7.857139174801E+00 -2.508670243770E-01 -4.155285430581E+00 1.293257010098E+01 1.152062410168E+00 -9.329199750942E+00 6.176779367609E-01 7.947505652646E-01 -1.223318543173E+03 -4.222194333601E+02 3.554386640313E+00 -2.113597715194E+00 -2.679787926183E+00 3.674804221624E-02 -1.170344811326E+03 4.195736875921E+02 -6.830028258286E+00 -4.703613349818E+02 -1.602530608451E+01 8.032766768173E-02 -1.990437414640E+01 -3.105749929256E+01 2.753792889019E-01 2.749679974477E+03
 -6.337520078246E-01 -7.095530396813E-01 2.180900188545E-02 -7.347803857346E+00 1.429897068942E+00 3.690144971565E-01 -7.819608975694E+00 6.475113409516E-01 -2.001621245753E-01 -1.077722106010E+01 7.305350138584E+00 -9.770718941608E-01 -5.837292473445E+00 1.319862334026E+01 2.204933948038E-01 -3.202874936345E+01 5.925766540500E+01 -8.389985681410E-01 5.330396972290E+00 -5.546540191658E+00 1.191554454547E-01 9.161387577317E+00 -8.682634850193E+00 -5.956140996270E-01 1.032775463570E+01 -1.189226501986E+01 -3.219578020993E-01 4.184058373037E+00 -1.139005912083E+01 9.047082745367E-01 -4.269049043036E+02 -7.106666961143E+02 6.853106985971E+00 1.110677672356E+00 1.327906422937E+00 -3.433660737339E-01 4.225274008006E+02 -7.174821753526E+02 7.347425088658E+00 -3.062551297687E+00 -1.495069687741E+03 1.659454754135E+01 3.466536805785E+01 5.862448373165E+01 -2.655276757990E-01 9.427175707510E+00 2.806913969141E+03
 1.195182995049E-01 -2.473194798271E-02 4.572946758046E+00 -4.110207272562E-01 1.059121754043E-01 -9.199625079232E+00 -2.935345768666E-01 -1.891920686856E-01 5.921309633454E-02 -5.155999951223E-01 4.414346413276E-01 5.296339577691E-01 6.748041277879E-02 4.654181912261E-01 -1.954611828593E-01 2.240476429838E-01 2.706958787711E-02 8.980708245691E+00 3.560007989666E-01 -1.650959064165E-01 -6.028794316886E-02 5.290183849854E-01 -3.307702832570E-01 3.571983750060E-01 -1.182479143383E-01 -1.538066660312E-01 -2.879565109858E-02 4.891134563455E-01 9.325389329037E-02 -6.566240390487E-01 3.725672367946E+00 6.751392117987E+00 -8.261115842991E+01 1.025564423032E-01 -2.046263594646E-02 -1.035095558505E+01 -7.191599520298E+00 6.774959028671E+00 -8.074801020491E+01 -3.871629891559E-01 1.741496116111E+01 -8.178430705432E+01 -3.926903263883E-01 -5.444265954372E-01 9.661890810647E+00 3.536660096510E+00 -3.064131862116E+01 1.908960475886E+02
 -7.549125946318E-01 -1.278160757611E+00 -3.629434439184E-03 -1.459298978103E+01 9.272127574841E-01 1.100116878110E-01 -1.043393460472E+01 -6.797485700984E-01 -1.282102677076E-01 -1.828244416980E+01 1.235829635165E+01 -6.126917353179E-01 -5.788346011989E+00 2.067688141486E+01 3.373901049097E-01 1.180950220534E+00 1.450568329885E+00 -1.730991537603E-01 8.828010980362E+00 -9.674027779784E+00 3.305362433450E-02 1.912381655282E+01 -1.111609057629E+01 1.582027144534E-02 9.912703740475E+00 -1.672391242735E+01 -8.543378171934E-01 9.590456833456E+00 -9.049109823754E+00 -3.544637560586E-01 -2.439999362885E+00 -6.056108776663E-01 2.906479403363E-02 -1.506285417641E+03 -5.235972935858E+02 6.549831689996E+00 -2.779631457695E+00 3.057515048414E+00 -1.343439224184E-02 -1.272767357628E+03 4.392203837419E+02 -7.457092728986E+00 4.885934612904E+01 -3.604550955405E+00 1.157322362364E-01 4.199009088902E+01 -2.407508549139E+00 -2.907511385045E-02 3.071692197037E+03
 -9.692778929390E-03 -3.293137711919E-01 -2.345699915788E-02 -3.127003451778E+00 1.176491105530E-02 -1.418144333757E-01 -1.109302462705E+00 -5.601554647156E-01 2.373462343734E-02 -3.080389583290E+00 1.998020107155E+00 2.123377662004E-01 -5.413733897420E-02 2.840261405559E+00 -2.804876415977E-02 2.563933560914E-01 3.763901334928E-01 -1.838409022654E-02 1.434104377288E+00 -1.554319499369E+00 -5.437915129320E-02 3.873026434525E+00 -9.786198727379E-01 2.066493339291E-01 -1.447512548404E-01 -1.750021888756E+00 -2.093166867359E-01 1.853485015223E+00 9.617277603221E-01 -5.193756938463E-01 -8.401947453729E-01 -4.254313947632E-02 -7.888748765381E-02 -5.360034770482E+02 -8.649453924841E+02 9.918355089162E+00 -3.964611184988E-01 6.094606236582E-01 -1.303614451361E-02 4.223422750726E+02 -7.238740677863E+02 8.475565688491E+00 -8.580643973389E+01 2.149269853749E+00 1.055533762800E-02 7.225114393883E+01 -1.093546224489E+00 1.675611134750E-01 8.581255000133E+01 2.536090941629E+03
 3.098375023483E-03 7.989891936351E-02 -7.946376642807E-03 4.604771347664E-01 -3.571317813766E-02 5.035476338661E+00 5.211884020135E-01 2.035680490681E-01 -6.532773800959E-02 7.370821127595E-01 -6.516112593236E-01 -6.360999099414E-01 -6.421104129746E-02 -7.639605434181E-01 2.351762635165E-01 -1.176424199967E-01 -7.818348361053E-02 -9.731283796608E-02 -5.349704941025E-01 3.377721998555E-01 7.120384898632E-02 -6.919831864554E-01 5.047693233164E-01 -4.372263594393E-01 5.518729287879E-02 3.632027538820E-01 3.319504248722E-02 -5.915195599256E-01 6.762177534660E-02 7.862108934627E-01 1.352073127726E-01 -6.928219801608E-02 -1.036130414428E+01 6.383334758373E+00 9.596455305634E+00 -7.049384912805E+01 6.384551989879E-02 -5.731593453442E-02 4.524423769864E+00 -6.701159107724E+00 7.963636908854E+00 -7.613456029218E+01 1.140257108399E+00 7.749037324206E-02 1.104319954598E+01 -1.016762614891E+00 2.755954440280E-01 9.586302971644E+00 7.631513586234E-01 -2.841573910761E+01 1.509684134617E+02
 4.495570010178E-01 2.312135687124E+00 -3.659152032646E-02 -1.209298229667E+03 4.429377603931E+02 -1.521866787508E+01 7.765808989770E+00 3.778424020743E+00 1.939168300503E-02 2.175408959421E+01 -1.320133849314E+01 -3.062968886851E-01 1.643319689305E-01 -1.885822837726E+01 -1.881088650161E-01 3.903843486203E+01 -3.352506546036E+00 9.487594098837E-01 -9.735777018162E+00 1.091204542109E+01 2.363179125614E-01 -4.566653496590E+01 3.927051474989E+01 -1.172942883011E+00 2.504679387626E+00 1.115646613043E+01 1.795254867206E+00 -9.595723799946E+00 -1.062757701335E+01 1.352431290489E+00 4.454851328436E+00 1.045323247149E+00 -1.316720649763E-01 -2.357548333604E+00 -3.107880901453E+00 7.878528097951E-02 2.907365096651E+00 -4.009697119238E+00 -2.195391660780E-01 -1.144258850793E+03 -3.865443017703E+02 6.934250108379E-01 -1.211562585344E+00 3.251721204204E+00 -7.705726592090E-02 3.212902382824E+01 1.140881797838E+00 1.646073317879E-01 -1.440108609908E+01 -3.142698964001E+01 9.328001070379E-02 2.717875155842E+03
 -3.513205199422E+00 -5.932194994683E+00 6.991131419601E-02 3.778058101013E+02 -7.372076175774E+02 1.387180927193E+01 -5.024518526996E+01 -4.179602198233E+00 -5.526510972831E-01 -8.995264563950E+01 6.034766675342E+01 -1.911323391503E+00 -2.630612719941E+01 9.923052769439E+01 1.142318278253E+00 7.241803473546E+01 5.813098272804E+00 4.392299333044E-02 4.304873143753E+01 -4.763143086676E+01 -4.880533869155E-02 6.031923065627E+01 9.060028640423E+00 -7.724728137802E-01 4.367209759414E+01 -7.897829127274E+01 -4.631033533234E+00 4.470041001058E+01 -3.611877884945E+01 -2.658754394656E+00 -1.166887008557E+01 -2.506615919202E+00 2.612683049508E-01 9.105292716585E+00 1.161652541677E+01 -3.752133372395E-01 -1.430735119849E+01 1.602397929683E+01 1.476694259772E-01 -3.697372704828E+02 -6.598283032381E+02 6.933455582522E+00 1.857253288220E+00 -1.208007153960E+01 4.625400031048E-01 -4.985529064485E+01 -9.494957058466E+00 -5.841598722011E-01 1.646195676110E+01 5.578702065489E+01 1.048271729597E-01 -1.224058547272E+00 2.744706257842E+03
 -9.627692762175E-02 5.644460167411E-01 4.641906600829E+00 -1.346544005670E+01 1.239570898878E+01 -8.278740538768E+01 2.415735494768E+00 6.857956767415E-01 -1.679706474882E-01 3.986890155017E+00 -2.930528146453E+00 3.182654476574E+00 4.406439288205E-01 -4.039219814211E+00 5.907892578207E-01 -3.211270183204E-01 -1.319082202664E-01 8.588935724071E+00 -2.384387942620E+00 1.638124726586E+00 1.887629952060E-01 -3.802199239962E+00 2.497371003020E+00 8.185436925620E+00 -8.406524543949E-01 2.591367611603E+00 1.935172758200E-01 -2.481142475831E+00 9.498270261745E-01 2.156442553209E+00 6.641692455008E-01 2.433947965395E-01 4.352530224650E+00 -5.491783783045E-01 -2.449373813334E-01 5.247506742165E+00 5.874516320068E-01 -1.013645777056E+00 -9.002880608822E+00 5.038500465163E-01 6.602949143176E+00 -8.189033117039E+01 -5.985482099437E-02 1.782867385133E-01 2.298031686800E-01 -1.373370435957E-02 7.775971029276E-01 8.215947156565E+00 5.296663197065E-01 -4.451450004588E-01 9.663775465942E+00 1.574163425244E+01 -4.668803424265E+01 1.875051401933E+02