#BIOSYM hessian 1
@Type: Hessian Update
@Units
 distance: 	A
 energy: 	Kcal/Mol
#header
@natom 67

#label
C1      C2      C3      C4      C5      C6      C7      C8      C9      C10     C11     C12     C13     C14     C15     C16     C17     C18     C19     C20     C21     C22     C23     H24     C25     C26     C27     C28     C29     C30     C31     C32     C33     C34     C35     C36     C37     C38     C39     C40     C41     C42     C43     C44     C45     C46     C47     C48     C49     H50     H51     H52     H53     H54     H55     H56     H57     H58     H59     H60     H61     H62     H63     H64     H65     H66     H67

#element
C  C  C  C  C  C  C  C  C  C  C  C  C  C  C  C  C  C  C  C  C  C  C  H  C  C  C  C  C  C  C  C  C  C  C  C  C  C  C  C  C  C  C  C  C  C  C  C  C  H  H  H  H  H  H  H  H  H  H  H  H  H  H  H  H  H  H 

#matrix
201
 2.734265076352E+03
 -5.031736306373E+01 2.810273822846E+03
 -1.048519122507E+02 -2.790784754108E+01 1.976635520992E+02
 3.936250627442E+01 6.547419638690E+01 -7.080050799478E+00 2.788610359378E+03
 -2.385992043676E+00 -2.258919037269E+00 -2.089721173165E+00 -2.249568253024E+01 2.761438596076E+03
 -5.278955823019E-01 -1.886011938797E+00 7.879509114466E+00 -4.239424601963E+01 -9.513964135669E+01 1.980923381250E+02
 -3.084315226620E+01 2.881964168929E+01 2.054883438663E+00 1.113915832789E+00 -1.169284580262E+00 -1.701566207651E-01 2.802073374682E+03
 -2.976584677051E+01 6.143943125751E+01 4.257806664832E+00 -1.472917040111E+00 1.086528056877E+00 6.120056879168E-01 -3.331748380438E+01 2.813854442465E+03
 2.833117406117E+00 -2.799606283076E+00 9.316095542043E+00 5.998614935992E-02 8.086621143818E-01 8.367586273382E-01 -1.103946373291E+02 3.007670540306E+01 2.002038886161E+02
 3.545031186854E+01 -7.020647427432E+01 2.444876599544E+00 -1.947424983012E+01 3.565580124205E+01 2.965659812717E-01 4.010039675008E+01 7.161740623733E+01 -3.541131004621E+00 2.779324333262E+03
 -1.031161538380E+01 -3.178790907032E+00 -6.893864382140E-01 -3.173072931458E+01 5.803237389416E+01 -1.093522898423E+00 -4.749848000146E+00 8.866595184010E-01 -1.969210114428E-01 -2.183158797498E+01 2.832283427707E+03
 -1.524302300542E+00 3.903469332710E+00 9.839318286607E+00 1.899146695002E+00 -9.438688441886E-01 8.424878289326E+00 -2.882186845509E+00 -4.522721418755E+00 8.660444330278E+00 -6.375955219195E+01 -4.507591676594E+01 1.971019536692E+02
 -4.187186411196E+00 -1.641105263089E+00 1.234291706746E+00 1.309000328115E+00 -7.845719491774E-01 1.296838531783E-01 4.012507206864E+01 -7.207464344251E+01 -3.683002018066E-01 -2.128963244333E+01 3.673115228670E+01 1.623264323375E+00 2.630445361605E+03
 -1.732949182026E+00 -1.128411523145E+00 5.590369218812E-01 2.442522769601E-01 -2.464848555405E-01 8.526810200437E-02 -2.977419877647E-01 2.121353017816E-01 3.924232744455E-01 -3.541649067789E+01 6.222100731051E+01 1.543817505800E+00 -2.227254991581E+02 2.898817465577E+03
 -6.690259704961E-01 -2.540763451225E-01 -1.075909039008E-01 5.607443241608E-02 -1.351648344856E-01 1.174411755922E+00 -7.403863408788E-01 2.695029584436E+00 1.097545402882E+01 1.280779168564E+00 -1.392078630490E+00 1.032190349583E+01 -7.389077736975E+01 6.378632662426E+00 1.571875700880E+02
 -1.191986074089E+03 4.705502082264E+02 2.735623741282E+01 -4.587490022700E+02 -1.147933591510E+01 1.352199408869E+01 1.135762453252E+01 -3.357959189528E+00 -1.543923679832E+00 3.494308215916E+00 9.405059906625E+00 -1.239526381488E+00 2.994091559113E+00 1.619127877607E+00 5.962627262536E-01 2.789445730882E+03
 4.541314104860E+02 -7.344443790338E+02 5.017750366107E+00 -1.217460622383E+01 -1.427433063735E+03 6.235640896672E+01 3.374026938790E+00 -2.791310466581E+00 -2.046567417028E-01 -4.746463846880E-01 3.058719305623E+00 6.375837325606E-01 1.623082291944E+00 6.523072156118E-01 3.677722032026E-01 -2.062552300152E+01 2.763009023174E+03
 1.600261008237E+01 -5.757270888907E-01 -8.319991740995E+01 1.440320385492E+01 6.410272115538E+01 -8.647776769599E+01 1.435897086053E-01 -1.230786169348E+00 4.401571324149E+00 -1.179873037313E+00 -1.328191211636E+00 -8.395605331134E+00 -7.969270808435E-01 -6.428348990960E-01 -1.202341509507E+00 -8.770205058705E+01 -1.312874050465E+02 2.135617874615E+02
 -1.167440654302E+03 -3.947817726799E+02 5.951554520622E+01 -4.282854761547E+00 2.574543277498E+00 7.661976482810E-01 -1.248066853366E+03 4.443481743702E+02 5.697968631759E+01 -4.770092493098E+02 -5.144976584470E+00 1.718439388049E+01 4.154171367233E+00 1.317950063741E+00 -1.000295547629E-02 -4.169825089940E+01 -4.054880800496E+01 3.745074529703E+00 2.785639413621E+03
 -3.952519345752E+02 -7.019416625146E+02 2.825701290764E+01 -1.370784581280E+00 1.558127059478E+00 -1.726695930049E-01 4.565815006323E+02 -7.448586867306E+02 -2.019369110454E+01 -1.596952129270E+01 -1.508620088662E+03 2.397365237587E+01 1.464454063007E+00 7.697389548430E-01 -5.438389669728E-02 2.437005542479E+01 5.558414725672E+01 -1.030009850028E+00 -4.182875401574E+01 2.840547781069E+03
 6.734978532538E+01 3.341609987135E+01 -8.687112135185E+01 -6.317816394459E-03 9.368416782031E-01 -6.582559113477E+00 5.415130724503E+01 -2.117085883404E+01 -8.679448724019E+01 1.399350446563E+01 2.102873415131E+01 -8.608125466245E+01 -1.154404440157E+00 -4.707388470759E-01 -8.680478616505E+00 1.907104010302E-01 -7.068359511573E-01 6.298686579890E+00 -1.315292243723E+02 -3.202573715876E+01 2.062522025694E+02
 -1.198502345366E+00 -1.033757795049E+00 -1.495582327336E+00 -1.222449140155E+03 -4.177982885865E+02 2.981769818318E+01 -1.000919250670E+00 1.380827402321E+00 8.155048278015E-01 -1.220379723628E+03 4.422124172204E+02 1.527777555611E+01 -9.710394337460E-01 -3.055789994994E-01 9.392720227545E-03 3.624937805759E+01 2.457572384923E+00 -2.763212880767E-01 4.470855067181E+01 1.128935937469E+00 1.003136319483E+00 2.804710283359E+03
 2.103979310617E+00 7.153035516027E-01 2.212099099273E+00 -4.200080709259E+02 -7.005037774684E+02 2.339631142233E+01 8.188076582202E-01 -7.873750546682E-01 -5.793464873323E-01 4.418772523003E+02 -7.407554322996E+02 1.930118913256E+00 5.344232080059E-01 2.153605874554E-01 -7.301653762696E-03 -6.840231228393E+01 -9.482048866125E-01 4.222604297876E-01 6.721704326841E+01 -1.891081759815E+00 -1.277029692715E+00 -4.016262316616E+00 2.808167517901E+03
 -5.860832784491E-02 -1.125813166986E-01 -9.234947204992E+00 2.573894338326E+01 2.329438842691E+01 -8.213209004621E+01 3.971328364687E-01 2.174317455633E-01 5.052660161634E+00 1.477546071090E+01 2.266273371259E+00 -8.409897666185E+01 -7.866568252700E-02 -2.416336499575E-01 5.608719108886E+00 3.691876003106E+00 2.750167655420E-01 7.486410576339E+00 -1.165018006452E+00 9.477983141350E-01 1.079490506487E+01 -4.974229144473E+01 -5.000815355783E+01 1.971766950992E+02
 6.804577473656E+00 2.154567726053E+00 -4.653517260150E-01 -1.808275102466E+00 9.831272925173E-01 1.362980156426E-02 -1.190833518221E+03 -4.092902030463E+02 4.049652684884E+01 3.092726416603E-01 2.170422431620E+00 -4.019911099820E-01 -5.177770848467E+02 6.503281051485E+00 1.583444056840E+01 -5.062595432115E+00 -1.663528310883E+00 1.091576841270E-01 -2.665379807668E+01 -3.605664706439E+01 1.211075285210E+00 1.226279612713E+00 -8.160771477491E-01 1.557793669721E-01 2.766166668643E+03
 9.832261281530E-01 1.493226778809E+00 -1.314116601792E+00 1.183998395206E+00 -3.666199200152E-01 -1.017951785244E+00 -4.159452236641E+02 -7.055757663623E+02 1.013356474029E+01 -3.205634389696E-01 9.776884008215E-02 -1.128983879823E+00 7.383916915187E+00 -1.636016758307E+03 -5.599311416799E+00 -2.167396252062E+00 3.422909935658E-01 1.196357567204E+00 3.559813405997E+01 5.933069339729E+01 -1.297102044716E+00 -7.620570305703E-01 3.371466897089E-01 -2.577783274750E-01 -2.655343738477E+01 2.958502062595E+03
 -5.392932355626E-02 4.195588545373E-03 5.300744951657E+00 -4.861030330526E-02 7.684367783169E-02 -2.734520001118E+00 4.248565058605E+01 1.020612252896E+01 -8.588451635320E+01 -4.270902532686E-01 8.349527645318E-01 -9.227067962775E+00 1.452930707989E+01 -7.595793817243E+00 -7.917866341127E+01 4.948050976414E-01 3.507664799001E-01 1.522224137403E+00 4.786933737839E-01 1.960039768690E+00 7.754167308064E+00 -3.427382068735E-01 5.949857784709E-03 -1.114998152419E+00 -1.014526660855E+02 1.777314011166E+01 1.889572164739E+02
 6.092668433262E+00 2.812251087835E+00 -1.279902727311E+00 -6.498557865755E-01 5.484195370079E-01 -4.436797959837E-01 2.098583378446E+00 -1.512508425018E+00 -1.572007394987E+00 -1.196842186935E+03 -4.117543674599E+02 3.428167846427E+01 -1.331930464831E+03 4.967625982055E+02 3.427846433316E+01 -5.660158643844E+00 -1.002714123329E+00 1.290371532263E+00 3.364876487231E+01 -2.314180465613E+00 -1.280679044549E-01 -1.885483425397E+01 -3.319710658538E+01 1.392341876753E+00 4.751507329643E+01 4.358867499855E-01 1.213312149016E-02 2.880190656164E+03
 1.546269672941E+00 4.322975053948E-01 4.571768666845E-01 -8.223726293459E-01 3.182944060108E-01 6.698354282861E-01 5.733852553350E-01 -6.317919510522E-01 5.086710273529E-01 -4.057539872901E+02 -7.013972163031E+02 1.976887379622E+01 4.951104465850E+02 -8.220238170003E+02 -9.748901465822E+00 -8.638274215427E-01 -5.893485691630E-01 3.785851203601E-01 -7.065699029875E+01 -6.957423190898E-02 1.638230254731E+00 3.520189916487E+01 5.773697882185E+01 -1.620470319057E+00 8.011335758957E+01 8.927370131442E-01 -2.522446459177E+00 -9.761671214266E+01 2.844168022646E+03
 -2.019122528078E-01 -1.985996628071E-01 4.210765975536E+00 5.242922389123E-01 1.252486868480E-01 5.372791152511E+00 1.995425913748E-01 -1.820857574358E-01 -9.588154533483E+00 3.652990384853E+01 2.158906401893E+01 -8.470240552244E+01 3.130957748912E+01 -9.850637324445E+00 -7.836892188396E+01 -2.007057420825E-01 9.230247209793E-02 -2.756951442644E-01 5.686368501078E-01 -1.300753737232E-01 1.095248985624E+01 -2.528229323111E-01 -1.074123588552E+00 8.698581927006E+00 -3.846050779763E-01 6.609979534921E-01 9.881159815264E+00 -7.782576916557E+01 -2.686150557393E+01 1.858174993510E+02
 2.893602056665E+01 1.301444999209E+01 -8.141446756775E-03 6.243834956408E-01 9.230504371440E-01 8.219321003341E-01 1.040314746283E+01 -3.595559806609E+00 -7.641154195098E-01 3.385469687118E+00 8.379323296401E+00 -6.806343981231E-01 3.054703600202E+00 1.200458641363E+00 7.329665026447E-01 -3.078551077421E+01 -2.306215291891E+00 3.777984474485E+00 -2.093930245550E+01 -8.850404656190E+00 2.617412690895E+00 9.262787137762E-02 -1.903676442164E+00 8.845600613927E-01 -5.930374782347E+00 -5.100623577557E-01 -4.890889215402E-01 -5.190708927819E+00 -1.588441950934E+00 5.739362629859E-01 2.759685306629E+03
 -8.359743746314E+00 -4.841973197005E+00 1.119408407585E-01 -2.196496104511E+00 5.470374861077E-01 7.331941306485E-01 -2.351379378475E+00 8.507642827136E-02 1.933296041285E-01 -1.250623548407E+00 -1.927717720740E+00 -3.872646297057E-01 -3.068409742689E-01 -3.402407174596E-01 9.019607833610E-02 1.132717238391E+01 -1.780808669503E-01 1.211076062017E+00 4.448332501489E+00 2.126381804498E+00 6.136208523064E-01 1.393776428881E+00 -1.251366178236E-01 2.367172571376E-01 6.965193357760E-01 8.991222873611E-01 -9.643199868322E-01 1.190865478495E+00 -6.438884067424E-02 2.463618068199E-01 1.833270615250E+01 2.795946631625E+03
 7.596452376521E-01 5.824623494530E-01 5.306085048970E-01 -3.852673838594E-02 1.055668997230E+00 -3.737366115916E+00 -2.252066979512E-01 -9.483665161851E-01 -8.078531314296E-01 -1.213432935761E-01 6.760272602594E-01 9.470691504078E-01 1.955524703829E-01 1.180624636435E-01 -1.733741406106E+00 -6.217454959629E-01 -1.029231242334E+00 8.270239775458E+00 -2.190828617302E+00 -4.437252027365E-01 -3.939954804975E+00 -5.100340705094E-01 7.239796968893E-02 -1.947605521901E+00 -3.972954552170E-01 1.211970925438E+00 3.190202863759E+00 1.078804384932E-01 -2.956126724321E-01 -9.268959880985E-01 1.616600212956E+02 2.078295037846E+01 2.096270245552E+02
 5.391230386983E-01 1.746174356575E-01 1.279977052907E-02 1.436664149214E+00 -7.169139904132E-01 4.462294667919E-02 -4.896166112274E-01 7.943886096811E-01 3.626581121633E-01 3.968293308537E-01 -6.158696813799E-01 1.524991666556E-01 -5.758506617846E-01 -1.908518124279E-01 1.442138450613E-01 -2.241048023280E+00 1.735949510360E+00 -1.341949401075E+00 1.633219923321E+00 6.519179319763E-01 -9.162978520713E-02 -1.133346430058E+00 3.686956850365E-01 1.212392733062E-01 3.802122544367E-01 -2.436057572306E-01 -2.102495938388E-01 1.323177288524E-01 1.537295332155E-01 1.341634719236E-01 3.971581231761E+01 7.329067545198E+01 -3.315462511808E+00 2.768120038990E+03
 -7.667986411411E+00 -3.607604832245E+00 3.222005681749E-01 1.406200354725E+00 -1.177435113213E+00 -1.015390953988E-01 -3.527709748182E+00 1.899950528269E+00 3.230975867031E-01 -5.220660946404E-01 -3.166083057557E+00 2.914673715639E-01 -1.627472536536E+00 -6.396173955799E-01 -4.994341574050E-03 6.653525103115E+00 3.218623693460E+00 1.191679282258E-01 8.393509773749E+00 3.515571055596E+00 -8.688416256716E-01 -1.360205306151E+00 8.245622873067E-01 -1.802016803816E-01 2.247123010586E+00 -1.428277554736E-01 5.061138363944E-02 1.698102231934E+00 6.702397691296E-01 -2.193960619879E-01 5.350499649308E+00 -1.738290969290E+00 -5.189257967743E-01 2.785890241818E+02 2.860997013325E+03
 -4.556141482743E-02 -5.117632562179E-01 6.482570896448E-01 -1.070652109019E+00 3.165010811854E-01 -4.358360707918E-01 4.715524877732E-01 -5.904588654929E-01 -5.897482166444E-01 -2.677319099467E-01 1.908446397917E-01 1.767917146966E-01 8.079503349701E-04 -1.522690872657E-01 3.453613571556E-01 1.514005338963E+00 1.478295143459E+00 -9.768757268654E-01 1.054131536737E-01 5.480768873534E-01 4.765860676738E-01 6.478561590508E-01 -5.428010484375E-01 4.048228027644E-01 -5.286668557274E-02 2.479561874763E-01 7.629340244498E-01 7.940088060048E-02 -1.066489381963E-01 -5.355758256802E-01 4.476512875084E+00 4.056329623061E+00 1.072010771753E+01 1.149020119385E+02 -1.085176606625E+01 1.562738268504E+02
 -2.163316349682E+01 -3.837585873008E+01 3.710030672730E+00 3.959290956457E+01 3.320305717436E-01 -3.995344947688E+00 -1.243369819772E+00 8.843026025194E-01 6.706735620280E-02 -9.547934382403E-01 -2.522837833887E+00 3.840682715135E-01 -1.524498590736E+00 -6.831541141296E-01 -5.811203651389E-01 -1.251283843316E+03 -4.224925841637E+02 4.009738935184E+01 5.379886288926E+00 3.056267651725E+00 -5.333782185541E-01 1.661012823737E-01 7.451509078494E-01 -3.230156437076E-01 2.340385641056E+00 -7.677152999445E-02 4.374573958005E-01 2.389828779826E+00 1.265257738173E+00 -2.686899403441E-01 -5.937282299368E+00 3.393180050453E+01 -2.171011103351E+00 2.524659556844E-02 -1.438337749563E+00 3.008375026086E-01 2.717764651766E+03
 -7.438382104939E+00 3.417591275741E+01 -3.056131695487E-01 -6.747853528447E+01 -6.760301695020E+00 3.762300885738E+00 -2.054317514603E+01 8.254770816886E+00 2.091346193527E+00 -1.657288904679E+00 -1.954797975243E+01 3.453162684633E-01 -7.288719624873E+00 -4.538352992898E+00 3.736998524382E-01 -3.784326129137E+02 -6.916262087527E+02 7.157942351404E+01 4.404833626305E+01 2.214796717476E+01 -4.192470181025E+00 -6.306122972081E+00 3.696032210012E+00 -5.804095370043E-01 6.142890010870E+00 6.034455365369E+00 -1.796394562896E+00 7.748728410070E+00 4.848768799801E-01 3.414345937803E-02 -4.428728520115E+00 4.976749155180E+01 1.762367533389E+00 -7.267163380177E+00 -1.638476358561E+01 -2.909022263495E+00 1.815646995413E+01 2.567485897573E+03
 2.142026857110E+01 1.425228812277E+01 9.493837884344E+00 -3.776431825490E+00 6.037788682047E+00 9.171900418889E+00 1.068455312127E+01 -3.376290931897E+00 -2.217399036911E+00 2.682935503036E+00 6.977340061716E+00 -3.324392222755E-01 4.591325093332E+00 1.763758110151E+00 5.875093586951E-01 3.888136923307E+01 5.773331157090E+01 -1.063543927001E+02 -2.359175469723E+01 -9.086018187123E+00 6.307305804800E+00 4.047416920390E+00 -3.389918079288E-01 5.137286937224E+00 -5.420925111489E+00 -1.977785067944E+00 2.276530009828E+00 -5.425130881459E+00 -3.507838854373E-02 -1.197380300110E+00 -2.035124082157E+01 7.772645376324E+00 6.943615055618E+00 -2.582039121899E-01 4.822871069638E+00 3.205813249142E+00 -6.558650622126E+00 -3.814795736085E+02 3.608362507175E+02
 -1.040136765621E+00 -3.736508129753E-01 -5.009148500092E-01 -1.597309907189E+01 -3.344084725107E+01 1.875621852144E+00 -1.749299723224E+00 1.972052176646E+00 5.511676163532E-01 6.283720890420E-01 -1.927140349207E+00 4.079883906941E-01 -1.433343894399E+00 -4.919363138908E-01 4.015506703116E-01 -2.549713506063E+00 4.750312422563E+00 -2.251734501819E+00 5.400847295449E+00 2.188060017700E+00 -5.704309345581E-01 -2.527443920291E+00 8.546082837873E-01 1.734342100897E-01 1.411067585867E+00 -6.605894165274E-01 -1.164806152044E-01 6.655009517678E-01 5.696556925290E-01 -2.715290854785E-02 3.803318374949E+01 -6.656136551376E+01 8.192132460906E+00 -2.428131683923E+01 3.759928217806E+01 -4.029797739676E+00 4.091018561040E+01 5.381499820413E+01 6.680624124533E+00 2.768509260266E+03
 -4.954564327824E-01 -1.323826927560E+00 1.184915799870E+00 3.450128947578E+01 5.528808433177E+01 -1.848646824152E+00 -1.195447922856E+00 7.148693296950E-01 2.541389079166E-01 3.131618627282E-01 -1.192221188367E+00 2.695525674307E-01 -8.001134557351E-01 -4.272935337778E-01 -1.716954279898E-01 -1.629553994710E-01 3.943429246761E+00 -4.168359336932E+00 2.866804821142E+00 1.650818632832E+00 -4.133360526699E-01 -1.359080929214E+00 1.956148657447E-01 1.782324496996E-01 1.990031442808E-01 5.934270193409E-01 8.477955574369E-02 3.405985464301E-01 -1.656652368146E-01 3.810975841772E-02 -1.230023599897E+00 -3.495935299732E-02 -3.426199921646E+00 -4.412584335321E+01 7.255259558467E+01 -1.174213042970E+00 -8.617342925233E-01 -1.795976064150E+01 7.406991908596E+00 -4.201813957567E+01 2.746489914737E+03
 -4.645737961529E-01 -3.505240467288E-01 -2.570568342512E+00 -1.278274406576E+00 9.878922246631E-01 1.557482011253E+01 -4.121607604110E-01 1.588603146675E+00 2.741994538267E+00 -3.252642262302E-01 2.124673878600E-01 -2.086978461121E+00 -4.396424750749E-01 2.337578177417E-01 2.078738239441E+00 -1.718587932109E-01 6.176970219036E-01 -1.286597965558E+01 2.840923934164E+00 -7.585536223185E-01 5.319102119869E+00 -2.815573155307E-01 -5.298025247951E-01 6.542836671100E+00 5.642402264265E-01 -1.891921889975E+00 -7.235888515495E+00 -3.550510752609E-01 -8.768980158894E-03 2.903249408833E+00 4.424501150204E+00 -1.933466504991E+00 2.577178918020E+00 -2.767898779373E-01 1.420612152339E+00 8.673276494564E+00 4.510164251135E-02 6.540332293627E+00 2.317815816494E+00 4.890462974928E+01 -9.976727925093E+01 2.106464874787E+02
 -2.053990439087E+01 -8.629846330969E+00 3.483448706470E-01 2.068194135447E+00 -1.859091798234E+00 -9.508459638399E-01 -8.153712195978E+00 3.942573803734E+00 5.224466313307E-01 -2.116951740976E+00 -6.909904579376E+00 6.148405067459E-01 -3.343335545877E+00 -1.147927088548E+00 -2.756296552447E-01 1.944066809646E+01 3.933967117358E+00 -7.258321841842E-01 1.863933067103E+01 7.412935506269E+00 -2.070102978333E+00 -1.695641263468E+00 1.872972668362E+00 -7.195776146792E-01 5.763735193889E+00 -7.807486249732E-01 4.653162199041E-01 4.270077425683E+00 1.857973687752E+00 -7.115983402960E-01 -1.210080646836E+03 4.254370857555E+02 -7.870078530229E+01 -4.997495142656E+02 -1.658718143024E+01 -3.247707357892E+01 -6.246878689617E+00 -2.226724563203E+01 1.786816436202E+01 -2.703934759937E+00 3.155106793859E-01 -2.951290143890E+00 2.803900176106E+03
 8.219179024035E+00 4.449422427233E+00 -3.768063337909E-01 -3.763156288310E-01 8.396035233244E-01 2.245660970614E-01 3.397965880132E+00 -1.440377076456E+00 -1.403778532315E-01 6.848107169952E-01 3.025772667552E+00 -1.341838978523E-01 1.366303314949E+00 6.400830389595E-01 3.086442392511E-02 -8.388380991943E+00 -2.524816196216E+00 -1.679502064799E+00 -7.793652550497E+00 -3.429263530177E+00 5.997971667937E-01 7.424846086071E-01 -5.787458883172E-01 1.808312127185E-01 -1.783937255246E+00 -3.006052554907E-01 1.189909950939E-02 -1.572124839218E+00 -3.762832612174E-01 1.874274080634E-01 4.260363477636E+02 -7.327176713675E+02 2.510114554163E+01 -2.128826306925E+01 -1.539577778345E+03 5.155280346134E+00 7.140202179029E-03 1.762361480603E+01 -7.034038127957E+00 1.908905845069E+00 1.368472260570E+00 -8.136114948936E-01 2.910177334798E+01 2.889921399843E+03
 -5.490016792316E-01 -8.213343739370E-01 -1.598278840079E+00 -4.267230892947E-02 1.226100738377E-01 1.542657945013E+00 -1.156004671941E+00 5.989225210572E-01 1.468005139176E+00 -3.021297073589E-01 -6.194679303984E-01 -5.195429641217E-01 -3.636491320901E-01 7.776976741938E-02 -6.376323223663E-01 -5.631108345213E-01 -1.421628220627E+00 1.541949620802E+00 5.016365936800E-01 -2.496289610211E-01 -7.811977079379E-01 -3.452214494031E-01 6.559964886666E-01 -7.596009738589E-01 2.391410040802E-01 1.019927646374E-01 -2.162936571778E+00 4.177693723382E-01 1.829558913759E-01 1.360479665769E+00 -9.864446180746E+01 3.754769025795E+01 -9.138689770106E+01 -2.649739060210E+01 -3.473289469749E+00 -8.276819476614E+01 -1.206364607418E+00 2.865973858965E+00 -1.146245161541E+00 3.412128882174E+00 3.360638797140E+00 -1.323304869881E+00 2.355593176662E+02 2.742156405193E+01 2.158799863705E+02
 -2.770614316126E+01 -1.507621516613E+01 -1.581366896342E-01 -3.131313761625E+00 -4.669790455410E-01 -8.763213786362E-01 -9.918401739806E+00 2.469482517064E+00 6.191680927512E-01 -3.307414283322E+00 -8.071848474714E+00 2.369179436685E-01 -2.574896591932E+00 -1.396915647037E+00 -7.193785136189E-01 1.269108635630E+01 3.814305600862E+01 -2.531232682272E+00 1.911580920481E+01 9.047693339282E+00 -2.414712056407E+00 5.547827232770E-01 1.240558344507E+00 -1.094632591088E+00 4.083185715613E+00 2.350333120821E+00 7.405928605207E-02 4.633791930924E+00 5.119378489043E-01 -2.319519960136E-01 -1.189131075774E+03 -4.411736882119E+02 -5.163626743060E+01 8.249925989486E-01 -5.745360331615E+00 1.233616330457E+00 -1.188515889965E+03 3.686195437580E+02 -3.453810668980E+01 -4.653956066133E+02 -5.306034163027E+00 -1.573573645032E+01 -3.464521413397E+01 -2.711271452835E+01 1.369249259066E+00 2.723419529135E+03
 3.758886680426E-01 2.988745416280E+00 -7.469325838206E-01 -1.510069063735E+00 1.902194129366E+00 8.857178120381E-01 1.259063505910E+00 -1.046397286445E+00 -3.574197417308E-01 -8.348018381069E-01 1.857801095797E+00 5.188894089795E-01 9.864134179619E-01 7.661636501770E-01 -2.144160061424E-01 -3.259129474178E+01 5.640716139075E+01 -7.711802302040E+00 -3.669060236325E+00 -2.106540749862E+00 -6.616757746073E-01 1.629115033830E+00 -4.452053762261E-01 -1.847659193016E-01 5.363586199869E-01 -1.176234909820E+00 1.314530237173E+00 -9.783591580972E-02 5.179595382268E-01 -5.142026361742E-01 -4.324183903554E+02 -7.137866596462E+02 -1.106077993405E+01 2.158636073183E+00 2.031963969310E+00 3.154466962603E+00 4.133078770081E+02 -6.770230882902E+02 5.275391853102E+01 6.875004591360E+00 -1.489132587355E+03 5.917751728251E+01 3.311533985027E+01 5.751308238494E+01 -4.916507791823E+00 1.957515522773E+01 2.791525657213E+03
 -6.295352845080E+00 1.692101568642E+00 4.208475328605E+00 4.614773073755E+00 -3.740494366749E+00 -6.230114338693E+00 -2.173424699664E+00 2.132255068907E+00 9.302954686811E-01 9.738744378729E-01 -4.826853512116E-01 -7.474912134969E-01 2.872401778425E-03 2.883422426594E-01 1.202953831379E+00 3.027982292078E+00 -1.023437537108E+01 8.422846987369E+00 4.106854924650E+00 -1.120422654262E+00 2.767133227971E+00 -1.928781751178E+00 5.269353345089E-01 1.398389900880E+00 6.046787698835E-01 -1.785018198732E+00 -2.727718184768E+00 -7.867129224115E-01 -1.692309682469E-01 9.305788682507E-01 -3.501057567026E+01 -1.311897611902E+01 -8.716720983100E+01 -8.743872165760E-02 -1.495496365626E+00 -1.048756863636E+01 -3.577547837888E+01 6.625151682789E+01 -9.714584603271E+01 -1.735415113823E+01 5.651362079094E+01 -7.807084696154E+01 -4.837811713033E+00 -1.937569831582E+00 1.005208061323E+01 1.072219968223E+02 -1.088601834714E+02 2.092805710956E+02
 3.991313369635E+00 1.575217970355E+00 -2.570398811928E-01 -2.815771354847E+00 1.622297522710E+00 4.109993058371E-01 2.573148837817E+00 -2.119548033273E+00 -3.958580402105E-01 -8.356614947586E-02 2.544848619710E+00 -3.826339251561E-01 1.732572432648E+00 6.035035195939E-01 -2.229437112215E-01 -1.330275256150E+00 -3.982894641665E+00 1.942029592305E+00 -7.211590683051E+00 -2.913934666930E+00 7.294573990176E-01 2.177931185811E+00 -9.120926218076E-01 4.826916431696E-02 -2.131536000639E+00 6.408131358078E-01 -1.256612262544E-01 -1.298259501890E+00 -7.841499058440E-01 2.435868297327E-01 -2.060943133105E+00 -5.944210041557E-01 3.121999862323E+00 -1.494700991978E+03 -5.299462006355E+02 -4.652717754958E+01 1.438705336296E+00 1.487041468731E+01 -6.630890453003E+00 -1.278159363297E+03 4.332507557064E+02 -3.664255567067E+01 5.291483092431E+01 -2.981372541978E+00 -2.056473960323E+00 4.027170016390E+01 -3.341023912193E+00 1.439571548759E+00 3.064654926734E+03
 6.046612488515E-01 -1.289324043324E-01 -3.015317061985E-01 -1.375885589331E+00 6.087175052937E-01 9.701244669267E-01 7.847275087793E-01 -7.062506352984E-01 3.148404403095E-02 -1.526593629689E-01 7.092872695031E-01 -4.271965334935E-01 5.584393340058E-01 1.474523035519E-01 2.226782794808E-01 7.548213307841E-01 -1.546069309874E+00 8.152801079926E-01 -1.947041300369E+00 -8.590709278449E-01 1.109719418817E+00 1.094520284952E+00 -4.429074218234E-01 3.450119152952E-01 -7.618463090713E-01 2.127924334600E-01 -8.624940956960E-01 -4.142700090813E-01 -3.343931717994E-01 3.658792436984E-01 2.783986920378E-02 -9.495603523471E-01 3.330735978225E+00 -5.414662942671E+02 -8.747338941558E+02 -1.144895022697E+01 7.567819936642E-01 4.066622087210E+00 -7.747395905728E-01 4.176132298840E+02 -7.181291194883E+02 2.932560609647E+01 -8.468559931551E+01 1.516317136150E+00 -2.275530478488E+00 7.126352974820E+01 -1.551328393323E+00 3.125034834276E+00 9.415762538753E+01 2.540295161706E+03
 2.255302542174E-01 -3.141497377268E-01 2.066708596016E+00 -1.271614776214E+00 2.703631077265E-01 -1.052938984004E+00 3.174216113890E-01 -1.577684702165E+00 -2.271889349399E+00 -2.802654195914E-01 4.113559305958E-01 1.624199718760E+00 3.364421778841E-01 -9.295610095035E-02 -1.484627685619E+00 1.882183161144E+00 1.642021591529E+00 2.250359518175E+00 -1.768385778124E+00 8.732929040753E-01 -4.103777273656E+00 2.357108609112E-01 -1.956472793862E-01 -1.683778855053E+00 -3.310433681562E-01 1.534107794069E+00 5.784847505834E+00 2.371562435246E-01 -2.816644894782E-01 -2.414251462911E+00 -2.579716081961E+00 -2.400483754297E+00 -4.943186822987E+00 -4.251013496673E+01 -7.344398884469E+00 -6.855490349526E+01 1.518512047967E+00 -3.507524616975E+00 1.110684766087E+01 -3.881106190936E+01 3.105799963223E+01 -9.516800849008E+01 4.011986046453E+00 1.552537232741E+00 2.783315979951E+00 -2.329717631480E+00 2.330880985355E+00 4.611830472714E+00 9.321013415996E+01 -4.499148939665E+01 1.688149713316E+02
 -1.808638539161E+00 3.778814544314E-01 1.758267418882E+00 -1.225098145469E+03 4.482585352333E+02 3.146316596325E+00 -2.240043910574E-01 1.418320847486E-02 -1.299813708912E-01 -5.335964394674E-01 5.409241784237E-02 -4.166304034025E-02 2.628902124837E-02 1.832986781834E-01 -3.082681196713E-01 4.273849813536E+01 -2.326465673926E+00 -2.167350734222E+00 4.250548435495E-01 -5.075036377606E-01 5.161488370766E-01 -1.898268663057E+01 3.596080489830E+01 1.768185030649E-01 8.197196854264E-01 -7.489297427519E-01 -2.754650865589E-01 3.648247301725E-01 4.104953130100E-01 -3.954631754818E-02 3.404553669344E+00 -8.641827244103E-01 -1.157536500124E+00 1.043235012039E+00 3.624046025038E-01 5.348700490148E-01 -4.155237864921E+00 1.089908043829E+01 -1.643260485812E+00 -1.137786046232E+03 -3.861197060945E+02 2.762419090111E+00 -1.928122566554E+00 -4.498323150475E-01 -7.264586872626E-01 3.549133389762E+01 -4.102384442727E+00 2.019966195402E+00 -1.860640842935E+01 -3.283038750837E+01 9.136215723631E-01 2.725941003529E+03
 3.466777474141E+00 2.311144115715E+00 -4.081895839834E-01 4.548826250711E+02 -7.426612151389E+02 8.925701629073E+00 2.365525258754E+00 -1.796225935395E+00 -6.668943151496E-01 -3.074039903507E-01 2.425226475762E+00 -3.051197746543E-01 1.433841916593E+00 6.212791998148E-01 7.785877796608E-02 6.544481446610E+01 -4.878806812619E+00 3.136495369454E+00 -5.888880955245E+00 -2.642909722725E+00 -1.394658643192E-01 -3.111488369775E+01 5.875905226686E+01 -1.361371681297E+00 -1.249945561548E+00 -3.281013625598E-02 3.145758727868E-01 -9.530852274586E-01 -2.689975403242E-01 -1.842648107715E-01 -1.129740506045E+00 -6.401730794811E-01 1.518538672780E-01 1.599096401708E+00 2.503914071684E+00 -2.681455775248E-01 4.789779657954E-01 2.208683033684E+01 -1.276890281652E+01 -3.825422434531E+02 -6.674200871607E+02 8.384607899438E+00 2.479623418137E+00 -2.040786329352E+00 -7.872582569082E-01 -6.325405266110E+01 -4.508133774701E+00 3.610146384661E+00 2.795434020831E+01 5.658207985748E+01 -1.161907220832E+00 -1.001338171586E+01 2.819364305900E+03
 7.116017972168E-01 -7.565626905135E-01 4.867715091990E+00 6.171708258355E+00 9.640797999107E+00 -8.318570293058E+01 9.232752550215E-02 -5.357340831794E-01 -2.000140937634E-01 -6.408873729586E-01 6.347526128242E-01 4.811174575426E+00 -1.643337463288E-01 3.069413826181E-02 -5.548948117632E-02 -4.832823910978E+00 1.297548829658E+00 9.702978129797E+00 2.692336742871E-01 5.080107428019E-01 -5.333450644056E-02 1.470918800884E+00 -3.090711508211E+00 9.668663465335E+00 1.066061799622E-01 1.535767991635E-01 3.862374908036E-01 2.321162023522E-02 -4.016592857044E-01 -1.390254510257E-01 -1.354061997371E+00 -5.746402372590E-01 4.418717319248E+00 8.766817610575E-01 -1.240712006888E-01 5.929481208704E+00 1.081964690845E+00 -4.785985814483E-01 -1.043837076402E+01 1.220082403460E+00 1.405333225917E+01 -8.298743356894E+01 5.249244277271E-02 8.195059257161E-01 -1.145690606168E+00 3.918535475834E+00 9.761057322272E-02 8.055771283960E+00 -2.950538948802E+00 -3.163259470610E+00 1.108926368616E+01 -9.463862894335E+00 -4.503562166090E+01 1.876180213395E+02