#BIOSYM hessian 1
@Type: Hessian Update
@Units
 distance: 	A
 energy: 	Kcal/Mol
#header
@natom 67

#label
C1      C2      C3      C4      C5      C6      C7      C8      C9      C10     C11     C12     C13     C14     C15     C16     C17     C18     C19     C20     C21     C22     C23     H24     C25     C26     C27     C28     C29     C30     C31     C32     C33     C34     C35     C36     C37     C38     C39     C40     C41     C42     C43     C44     C45     C46     C47     C48     C49     H50     H51     H52     H53     H54     H55     H56     H57     H58     H59     H60     H61     H62     H63     H64     H65     H66     H67

#element
C  C  C  C  C  C  C  C  C  C  C  C  C  C  C  C  C  C  C  C  C  C  C  H  C  C  C  C  C  C  C  C  C  C  C  C  C  C  C  C  C  C  C  C  C  C  C  C  C  H  H  H  H  H  H  H  H  H  H  H  H  H  H  H  H  H  H 

#matrix
201
 2.782847526562E+03
 -2.027569631340E+01 2.811691189166E+03
 1.676331382266E+01 -1.176674690601E+02 1.986039501749E+02
 3.973677781598E+01 6.672639435440E+01 -1.172366434404E+00 2.791697061569E+03
 -4.828762691022E-01 -1.248248598401E+00 1.239389590696E+00 -2.348376689303E+01 2.764258081846E+03
 -1.473105284098E-01 7.759803976837E-01 8.246726342139E+00 2.369907810660E+00 -9.630792719811E+01 1.951672705066E+02
 -1.950697616988E+01 3.466039234472E+01 -1.187199080431E+00 -2.552278216893E-01 -1.314521190963E-01 2.752913239030E-02 2.807612165801E+03
 -3.383146206313E+01 6.018219350161E+01 -4.218438182496E+00 3.523525101361E-01 -1.012253077660E-02 3.211264895307E-02 -2.979386596198E+01 2.814966807331E+03
 1.302589166542E+00 -1.160692012594E+00 9.594253456469E+00 -2.225112241261E-01 1.032822584333E-01 2.732331582164E-01 4.315780575796E+01 -1.111369239770E+02 2.005885518122E+02
 3.872318347399E+01 -6.861329892932E+01 1.862659628917E+00 -1.989213866741E+01 3.488333454910E+01 -1.703025722509E+00 4.172801943803E+01 7.211916292275E+01 -2.676073940747E+00 2.786837267860E+03
 -8.216300406201E-02 5.049842464568E-01 1.131388085589E+00 -3.298333963977E+01 5.910773056899E+01 -2.381970497807E+00 -2.842434182353E-02 -4.250949811968E-01 1.014055252787E-01 -1.943870217741E+01 2.829318523128E+03
 4.149726710541E-01 -4.475008604078E-01 9.487610712603E+00 1.062087088973E+00 -2.499328915078E+00 9.488919401577E+00 1.093871311263E+00 2.241779022988E+00 9.065539001262E+00 2.860896497761E+01 -1.022225343471E+02 1.994630728593E+02
 3.467653956765E-02 -2.110699283541E-01 -4.021864317090E-01 -2.031523494559E-01 -4.850636327122E-02 -1.092733176886E-01 4.180435757241E+01 -7.309754172246E+01 4.096561705575E+00 -2.184490693266E+01 3.837691197016E+01 -2.234165708495E+00 2.635573276141E+03
 9.298388581545E-02 9.326077402377E-01 -1.705000757292E-02 6.603613727186E-01 1.677335197998E-01 1.081263746098E-01 9.096336216723E-01 -1.164033335388E+00 4.734610115670E-01 -3.443199209043E+01 6.220660770974E+01 -2.981568801378E+00 -2.209395100771E+02 2.893155825239E+03
 1.150039025076E-01 1.162420358590E-01 -2.095754884876E-02 -1.367917574470E-01 7.850690154121E-02 -7.014716796810E-02 3.221222107167E-01 -6.376627883564E-01 1.068806993429E+01 1.047490883949E+00 -1.349767410256E+00 1.032524236899E+01 3.970328359182E+01 -1.235098441762E+02 1.612156670059E+02
 -1.230157907327E+03 4.470419933137E+02 -2.242226051680E+01 -4.635673987064E+02 -8.871663407739E+00 -2.656056112436E-01 1.466022860641E-01 -2.288308552860E-01 -3.328829222202E-03 1.968840990242E-01 4.907575931982E-02 5.018741593049E-01 1.012754689840E-01 -4.096730109455E-01 -1.595124298097E-02 2.821869285122E+03
 4.412360665160E+02 -7.392052690348E+02 2.766160824544E+01 -7.344471611238E+00 -1.431032254903E+03 4.825709627386E+01 3.880139513971E-01 -6.749715834178E-01 -1.548404387522E-01 4.138860311282E-01 -1.497304521435E-02 -6.187743711969E-01 3.086853375540E-01 -1.080110434704E+00 -2.042831207831E-02 -1.607105587617E+00 2.778132615310E+03
 -1.666348064300E+01 2.549388507233E+01 -8.437946741087E+01 -2.794510281206E-01 4.967474099847E+01 -8.284936558777E+01 -7.654259174950E-02 3.137199770233E-01 4.493222121653E+00 -2.001733170579E-01 -5.354268886731E-01 -9.551342151598E+00 5.606635606829E-02 6.583322976479E-02 4.159932501203E-01 3.404271247536E+00 -9.738438738314E+01 1.965280402880E+02
 -1.194314046712E+03 -4.112976602847E+02 3.774062683317E+00 1.955950078369E-01 2.324540896518E-01 -1.096695695708E-01 -1.261009008210E+03 4.470936422925E+02 -4.163670631678E+01 -4.851155342919E+02 -1.240020769738E+01 -5.668876123944E+00 2.531061787082E-01 -6.936558027398E-01 2.503536967066E-02 -1.966360475209E+01 -3.368034854413E+01 6.920272008412E-01 2.820137295239E+03
 -4.117375235230E+02 -7.009133387630E+02 2.231480622187E+01 -2.118526029193E-01 3.881013241719E-02 -5.086351085920E-01 4.489396512154E+02 -7.465967787151E+02 3.688863789311E+01 -1.457505431304E+01 -1.510782029180E+03 5.472120551130E+01 -3.024226393651E-01 7.206958777160E-01 -5.575822994437E-01 3.464839576702E+01 5.881789638386E+01 -1.067894917291E+00 -2.572023177746E+01 2.840136465871E+03
 -5.577847348146E-01 1.918023458305E+01 -8.275011120387E+01 4.410187915491E-01 -7.016467044824E-01 -9.487068613200E+00 -4.151199835589E+01 3.686623691096E+01 -8.811941834828E+01 -4.402520024611E+00 5.723938445057E+01 -8.787171355781E+01 -1.952196679969E-01 -6.341344697038E-01 -9.536544398192E+00 -1.012507856479E+00 -1.168727812400E+00 9.540786272687E+00 4.400954045411E+01 -1.111471863146E+02 2.023570432852E+02
 4.787730097545E-02 3.482887199977E-01 2.078346892047E-01 -1.221784260749E+03 -4.184897328105E+02 1.420099848728E+01 4.477039307836E-01 -1.719167424601E-01 3.123760490324E-01 -1.223346527478E+03 4.407480939662E+02 -2.735464920203E+01 3.480151580249E-01 -1.130622704579E+00 3.951605047754E-01 3.686951117607E+01 -8.988959276832E-01 7.456889667990E-01 4.120443283707E+01 1.196300831264E-01 -2.753249432434E-01 2.807342276855E+03
 -2.373747926799E-01 5.495885407959E-01 -1.366310863022E+00 -4.211446392609E+02 -7.038665614467E+02 2.381167362415E+01 -1.762928601402E-01 -2.792221736712E-01 2.419131824776E-01 4.391283924017E+02 -7.352254968431E+02 3.087103900458E+01 -1.379391332845E-01 3.606068141191E-01 -2.130820693030E-01 -6.668223583584E+01 3.408813547781E-01 -1.139649561057E-01 7.021047936812E+01 -8.809449345583E-01 5.257651736891E-01 -9.941412682288E-01 2.803293820628E+03
 8.271419371484E-02 -8.575430863935E-02 -9.169432447492E+00 1.404303262078E+01 2.320514420784E+01 -8.345408223863E+01 -1.108940682571E-01 1.880236059089E-01 4.698085156295E+00 -2.618677884444E+01 2.941287932456E+01 -8.513550055754E+01 1.728708467256E-01 1.211979194474E-01 5.394762530870E+00 2.434013919109E+00 1.496443769100E-01 9.367669264434E+00 -2.523218815939E+00 1.965541667851E-01 9.848751061003E+00 1.443898080767E+01 -1.087839717052E+02 1.996810047726E+02
 6.897999630204E-02 6.713181580197E-01 1.573599713709E-01 6.887548166068E-01 1.738786287818E-01 8.453800547663E-03 -1.194858109744E+03 -4.082647309384E+02 1.021646587033E+00 9.941891590389E-01 -7.954368566368E-01 2.162283962782E-01 -5.214637810682E+02 5.695334916603E+00 -6.060799169537E+00 -3.958495176690E-01 -9.861950035877E-01 -1.896594289304E-01 -2.058024247246E+01 -3.308845037079E+01 1.082978077875E+00 -1.279496529475E+00 6.201839010455E-01 -4.248008513482E-01 2.772990930785E+03
 -2.244387205537E-01 -7.102563682752E-01 6.705288660180E-01 -1.003888506573E+00 -9.860464870367E-02 -1.018348874808E-01 -4.176701491460E+02 -7.031583439039E+02 2.061903713773E+01 -1.516867437418E+00 1.047232561851E+00 -3.857966574126E-01 8.254414940691E+00 -1.630410405670E+03 7.009814802435E+01 6.064248238681E-01 1.208142882199E+00 2.084152555655E-01 3.571068569071E+01 5.814286411038E+01 -6.210951870118E-01 1.869291614856E+00 -8.958366533909E-01 3.211761986413E-01 -2.548764022213E+01 2.948099574923E+03
 -1.229215512328E-01 1.027403384339E-01 4.389250574341E+00 1.609743444379E-01 -1.549630073906E-02 4.379095587308E-01 3.133749663857E+00 2.214396257138E+01 -8.391388457117E+01 7.315816514381E-02 -6.202474488863E-01 -9.555370978797E+00 -6.018470487294E+00 6.969812874473E+01 -8.156498294702E+01 -3.335060546200E-02 -1.456832293384E-01 -6.478281794427E-01 -2.115562038137E+00 -2.824395118918E+00 9.638556728705E+00 -3.755693667577E-01 2.969261747734E-01 -6.362638568540E-01 3.700021001400E+01 -1.222209401619E+02 1.887494352698E+02
 -9.672887522096E-02 4.914022300266E-01 5.612815637754E-01 4.074622796612E-01 5.908923172032E-02 1.535523329341E-01 3.473903751106E-01 -3.912179964684E-01 8.799566258835E-02 -1.195207629919E+03 -4.168673557973E+02 3.520455515152E+00 -1.334127633278E+03 4.935465325051E+02 -3.705858873307E+01 -2.222495752221E-01 -5.998272167128E-01 -1.127635857992E-01 3.825087866054E+01 1.490473140671E-01 5.733292922872E-01 -2.006312026570E+01 -3.246558959079E+01 6.848401884260E-01 4.865420961377E+01 1.578184831927E+00 5.937234044982E-01 2.880403527976E+03
 1.089267775593E-01 -6.319008633648E-01 -2.031151075645E-01 -1.128037008061E-01 -1.346941617221E-01 1.884574762450E-01 -1.305168372902E-01 3.027547386428E-01 -5.706505025583E-02 -4.082682316050E+02 -7.032046201880E+02 1.935186997724E+01 4.924761991167E+02 -8.209788500633E+02 3.740328265940E+01 6.477324409150E-02 4.662292621328E-01 -2.303198159874E-02 -6.850062373598E+01 5.232457628185E-01 -7.785459337324E-01 3.452644240236E+01 5.820482850848E+01 -1.036827931850E+00 8.168466121040E+01 3.073168194589E-01 1.674440723153E+00 -9.473476246884E+01 2.842689020855E+03
 4.029769955697E-02 4.798662398852E-01 4.235710587133E+00 -2.236103493783E-01 2.366438333458E-01 4.574224873984E+00 -6.105212268388E-02 -3.936951248288E-01 -1.010990396861E+01 2.276228946176E+00 1.868176909708E+01 -8.442507064856E+01 -3.601387608323E+01 3.782895618418E+01 -7.927091525039E+01 4.930727415379E-02 -1.614833742698E-01 7.815557962809E-01 3.112793207415E+00 3.894963731031E-01 1.127266200054E+01 -1.240375970111E+00 -2.403799199312E+00 9.246618583603E+00 -3.809672825844E+00 6.628491244572E-01 1.011479952144E+01 3.868089148174E+01 -1.082174446984E+02 1.890876902233E+02
 1.555976320251E-01 -1.910668728087E-01 -1.182515820186E-02 6.421949106264E-02 1.788469037598E-03 -1.379444206191E-01 1.306148359757E-01 2.138308077516E-01 5.143217782797E-02 2.171010830449E-01 -2.315908711621E-01 1.177084954471E-02 4.316324209523E-02 -2.420108542897E-01 -6.981074346409E-03 -3.003443871828E-02 7.594005461315E-02 3.640566507297E-02 -1.284298951957E-01 9.580649384064E-02 -3.217751309162E-02 -2.882019588792E-01 2.877506115584E-01 -5.254205257172E-02 -2.237908708815E-01 3.925305566695E-01 -7.987514851362E-03 -6.751342687503E-02 -7.239181083425E-02 -1.017288450469E-01 2.805525495721E+03
 -1.702814754174E-01 3.275273712344E-01 4.516949309513E-03 3.736597243341E-02 -1.210959759112E-01 -3.061588082707E-02 -4.127633941567E-02 -5.918573664327E-01 3.179773183029E-03 -1.312004170997E-01 1.816457054376E-01 1.402043239831E-01 8.899313074793E-02 -7.354947989208E-02 -4.483471258647E-02 -3.812024929701E-03 -9.555658633302E-02 2.658753200029E-01 -4.590317062442E-02 1.811778001400E-03 -7.852292465852E-02 1.289533970135E-01 -1.965321589250E-01 -6.015117998761E-02 7.943101560485E-02 -6.796651835811E-02 4.114896568666E-02 -6.310596725878E-02 2.032063510285E-01 -1.738571281397E-01 1.023852487768E+00 2.798064477116E+03
 -1.511611322776E-01 9.588024062612E-02 -1.156817752226E-01 1.360427969661E-01 1.387821559507E-01 1.428887725910E-01 -7.645196246905E-02 8.020508449585E-04 4.541134442944E-02 -7.696602812979E-02 1.116476737820E-01 -6.600949521454E-02 -5.407599070831E-02 1.163865972337E-01 2.777333921362E-02 1.047644178724E-01 -1.686289341235E-01 4.526382779708E+00 7.794171925386E-02 -9.256764612011E-02 6.669545648418E-03 1.080770035312E-01 -1.174374033801E-01 5.528018861307E-02 8.191523958829E-02 -9.367326737557E-02 2.752148368882E-02 5.651296759068E-02 -6.287460108454E-03 1.530589692302E-01 -3.796788526855E+01 -9.438451974971E+01 1.973113437170E+02
 9.581499705100E-02 -3.113188169693E-01 -9.029950624220E-02 1.601546050755E-02 -3.252022991362E-03 2.379912015487E-02 -1.338968095980E-02 7.614983835392E-02 2.043161373135E-02 6.174462154608E-02 -1.562804460837E-01 -6.220848306634E-03 -3.239858375474E-02 -1.105222080573E-01 -7.047592964581E-02 -1.153355745239E-03 1.998492335422E-01 -1.021999811659E-02 1.647128583364E-02 1.015453851169E-01 -5.266481362178E-02 -9.660765059820E-02 1.718654948712E-01 -5.968496115870E-02 -1.780096583465E-02 1.747067491349E-01 3.346071032236E-02 5.577260673024E-02 -4.310170283214E-02 -8.737208869591E-02 4.151037159796E+01 7.178546504781E+01 -3.526812438814E+00 2.781982564260E+03
 1.107037235761E-01 2.969159957293E-01 2.847448688127E-02 3.966920981392E-01 2.865043543692E-02 8.709485862945E-02 3.969743535583E-01 -2.066674646409E-01 1.408854124636E-01 6.640009746382E-01 -4.212353156433E-01 1.564621038948E-02 3.166877140640E-01 -1.019445239471E+00 1.493671276398E-01 -2.517972180737E-01 -4.530172760816E-01 2.207779962615E-02 -4.825367110035E-01 4.349442438776E-01 -9.964644844260E-02 -7.460969941170E-01 3.675803983524E-01 -7.375755702022E-02 -1.075007116517E+00 1.561091478577E+00 -1.242014489400E-01 -5.252964222188E-01 1.052849131423E-01 3.697668719304E-02 -1.214739871803E+00 -1.605457778075E+00 4.489851951475E-01 2.774783827793E+02 2.854902168051E+03
 1.635530400366E-02 2.718952784817E-01 -1.527208573402E-01 -1.428331337862E-01 1.945764149098E-01 -1.886025589296E-01 -3.190208828616E-02 -2.496438443279E-01 -1.122551309497E-01 -3.731563372964E-02 1.322053823728E-01 -3.726210707026E-01 4.529978212547E-02 -6.225847108079E-02 3.312404453234E-01 8.099845344118E-02 9.996700568476E-03 4.551377879619E-01 -2.550066757907E-02 -2.938958912925E-02 5.225294821254E-01 2.324576803522E-01 -3.045497653576E-01 5.017962589367E-01 -1.108397426126E-01 2.417459930723E-01 -4.983184834372E-01 -8.492020986872E-02 5.190906022945E-02 6.135809596882E-01 -8.885201590430E-02 -7.885786422586E-01 1.093514714751E+01 -4.662313803388E+01 -1.031847856779E+02 1.539420665523E+02
 -1.994441253545E+01 -3.533873280460E+01 1.483736029546E+00 3.802234856388E+01 -2.196112481496E-01 3.240952072856E-01 -1.375870147183E-01 6.158737973759E-01 1.266679050288E-01 -2.536538156375E-01 -1.609512995489E-01 -4.586919347119E-02 -2.180780196776E-01 6.428229471961E-01 -1.032904915601E-02 -1.246437722466E+03 -4.322198414889E+02 1.342751172063E+01 2.599324649074E-01 -2.238193879218E-01 -1.717537902222E-01 3.687937283733E-01 2.386317107497E-01 -4.190902570555E-03 6.332921094643E-01 -7.247508663381E-01 8.184247477242E-02 4.612257010461E-01 -2.899442394830E-01 -8.006234163493E-03 -1.924960164868E+01 3.420765517468E+01 -1.395278397091E+00 -9.073727795880E-02 2.776087966892E-01 -4.080190105832E-04 2.774996493829E+03
 3.621765805790E+01 5.922271120884E+01 -3.721378425344E+00 -6.838926065810E+01 -6.906186824661E-02 5.841779491682E-01 -3.004055918031E-01 7.563363640182E-01 1.898077449630E-02 -2.848202631794E-01 8.341545342898E-03 -1.838514821627E-01 -1.591790851568E-01 1.038251836880E+00 2.476792355556E-01 -4.375596827191E+02 -7.222526460237E+02 2.321876507319E+01 3.956873455685E-01 -6.379825370831E-01 7.053017325111E-01 5.422186149719E-01 3.229759392008E-01 6.969863979336E-01 7.114595188979E-01 -9.205525467133E-01 -1.885774884171E-01 3.720781157297E-01 -5.658283541034E-01 4.880300961318E-01 -3.279349081066E+01 5.705358741011E+01 -1.006316927774E+00 -2.375666820482E-01 3.892733073201E-01 2.720553267710E-01 1.396089287025E+01 2.799620114668E+03
 -1.839118732289E+00 -3.922491936875E+00 1.050547872104E+01 1.126621508628E+00 1.330049231082E+00 8.609439360604E+00 1.127057738447E-01 -1.777514271929E-02 -1.687634706758E-01 -2.958531670692E-01 -3.582374314574E-01 1.581279237713E-01 5.613945888775E-03 -1.541701469266E-02 -8.886636215239E-02 1.932459151771E+01 2.551717270866E+01 -8.389197400570E+01 5.793182236889E-02 4.818397628206E-01 4.596924939422E+00 3.844543672400E-01 1.878734784595E-01 4.368667046489E+00 6.973705271565E-02 -4.550851198508E-02 -1.038568519962E-01 1.259985502967E-01 -8.073632670123E-02 -3.913956912923E-01 1.054124331251E+00 -3.879577610458E+00 8.698685839732E+00 3.834287540140E-01 -1.203384736422E-01 -1.342954906105E-01 -1.225587602205E+01 -1.123756311522E+02 1.963517628416E+02
 2.584903829489E-01 -6.701222348722E-01 2.813512924321E-01 -1.881757630102E+01 -3.143673297363E+01 1.359804644766E+00 2.252615669282E-01 4.704362478403E-01 3.105682902857E-02 4.143641073696E-01 -4.616970456498E-01 -7.378112608510E-02 7.579593772127E-02 -3.706260699000E-01 5.732060462211E-02 -7.606779127663E-02 3.559221579036E-01 3.736637964212E-01 -2.016807127515E-01 1.392089544932E-01 2.720371805028E-02 -4.505934407064E-01 5.564844757929E-01 -4.975999697346E-02 -4.538942525571E-01 7.876453164750E-01 -9.573816461588E-02 -9.771999687870E-02 -2.272402566863E-01 1.497080716018E-02 3.923268672081E+01 -6.892550243311E+01 2.335274934320E+00 -2.314336073583E+01 4.000365806812E+01 -9.753056612775E-01 3.970921509754E+01 6.648514638670E+01 -1.780876457475E+00 2.770300341382E+03
 3.844905074393E-01 -8.164930663484E-01 -4.758559910191E-01 3.350818680308E+01 5.537414259959E+01 -2.422113823903E+00 4.245357213943E-02 5.190357774820E-01 7.225784592990E-02 1.560022890449E-01 -3.081072137973E-01 -1.927099730324E-01 -2.617069307397E-02 1.188997095234E-01 1.552250565540E-01 -7.191691025023E-02 5.766519321321E-01 -5.634798108764E-01 1.942077198193E-02 -7.543670856150E-02 1.644007361009E-02 -6.097073316116E-02 4.162270987386E-01 2.314938956014E-01 -3.606696619198E-02 1.720847553666E-01 -1.082992207890E-01 9.860033521710E-02 -2.832044029640E-01 2.044027872569E-01 -3.939802089441E-01 5.814139012740E-01 -2.123222996483E-01 -4.223142235629E+01 7.380722119724E+01 -1.190856596325E+00 -6.556685307065E-01 -7.004026868659E-01 1.090550908529E+00 -3.824812351073E+01 2.753453989595E+03
 1.819704382570E-01 1.190374080843E-01 -5.001207393399E-02 -8.809635040087E-01 -2.637839676325E+00 8.189694142594E+00 4.572832636962E-02 -1.451020916531E-01 4.545168630557E-02 -1.597034378400E-02 -2.801891625746E-01 2.661536416275E-01 -1.346859235806E-01 -1.964055065641E-01 -2.949639823729E-01 -7.026483577128E-01 -8.115086586168E-01 -9.120915660531E+00 -1.529061777379E-01 1.910474905381E-01 -3.343804731891E-01 1.763996924313E-01 4.848363929731E-01 3.975504182744E+00 2.386966088954E-01 -7.077965454024E-02 2.990682086235E-01 2.810979732827E-01 2.765455684633E-01 -5.503327266444E-01 -8.088314902824E-01 1.714328990953E+00 9.552330379520E+00 2.284650817076E+00 -3.133444864394E+00 1.237386448062E+01 -3.564195299506E-01 3.528348734834E-03 8.826701912585E+00 -3.420555188986E+01 -9.141691447473E+01 1.886729897926E+02
 -1.170344766150E-01 4.728885067080E-02 4.303076416779E-02 -1.728209774711E-01 -5.047171069832E-02 1.075840814001E-01 -1.177642520637E-01 -7.608200515772E-02 -4.199803843227E-02 -2.396366055377E-01 2.356017101905E-01 -5.806349631897E-02 -7.492500054389E-02 3.713165078212E-01 6.039571319415E-02 1.126394665514E-01 3.220274615294E-02 6.761987761554E-02 1.709800419457E-01 -1.446550244221E-01 1.059304464320E-01 3.560672403398E-01 -2.645400011082E-01 1.242349620431E-01 2.332608640181E-01 -4.587364120747E-01 -1.179474594182E-02 9.895555352090E-02 -2.063804086081E-02 2.202075037977E-01 -1.233588657042E+03 4.341501606065E+02 -4.551370644023E-01 -5.071577788720E+02 -1.709727589191E+01 5.363188421099E+00 -1.216500196790E-02 5.361361397276E-03 -9.743091174663E-02 2.123946756619E-01 2.569037923894E-01 -1.101687071769E-01 2.844191978576E+03
 -1.788854099008E-01 5.708217474425E-03 -7.719111256882E-03 -2.722230437550E-01 2.830527202902E-02 -1.255358562999E-01 -3.214215050151E-01 8.966793612509E-02 -1.464003912300E-01 -5.925106262880E-01 4.772528856934E-01 -1.763068220338E-01 -2.491669139130E-01 8.536941006614E-01 -4.662981850981E-02 1.516095518254E-01 2.095621421269E-01 1.429680810379E-01 3.612868400264E-01 -3.930906918868E-01 2.499443752094E-01 7.029161489496E-01 -4.756102638512E-01 1.876915657565E-01 8.197831730812E-01 -1.283849530290E+00 -5.172334081515E-03 3.616234603577E-01 -3.881724725617E-02 1.696118316769E-01 4.368449309327E+02 -7.321618182776E+02 1.741592558388E+01 -2.701348677765E+01 -1.538987708850E+03 5.404904609590E+01 -4.531560833434E-02 -8.279691120624E-02 8.034626669819E-01 4.759698966466E-01 2.399713719225E-01 -2.144241561643E-01 2.735594456648E+01 2.887463996393E+03
 -1.126511164750E-01 -3.527039388724E-01 -6.064746628197E-03 -4.914349949579E-03 -2.122347877452E-01 9.104910162467E-01 -2.061615603308E-02 3.144458445087E-01 3.693263543781E-01 -1.419436436472E-01 7.164545228602E-02 2.922759749620E-01 -1.265878098179E-01 4.129454536404E-01 -2.021678878595E-01 6.241977566581E-02 1.529065022510E-02 -5.888053963568E-01 1.752939476972E-01 -5.522357776154E-02 -7.403503638621E-01 8.404421744192E-02 7.549717208378E-02 -5.602681379196E-01 7.476015750917E-02 -3.887997305095E-01 7.761192001574E-01 1.161179920613E-01 -1.381281980772E-01 -1.498931887656E-01 -2.943619836102E+00 1.928787872383E+01 -8.568147497536E+01 6.005342254109E+00 5.299175139756E+01 -7.941449849260E+01 -6.348216240839E-03 -2.866779348101E-01 4.141503412168E+00 1.437305991636E-02 -2.753390017086E-01 -1.057691454346E+01 -2.901923402186E+01 -9.542763306074E+01 1.892990606365E+02
 -1.950899233604E-01 3.392457949551E-01 -1.916501183656E-02 -2.248521822923E-01 -5.652984633748E-02 2.502854989247E-01 -1.183968356354E-01 -1.826553457123E-01 -9.555141375702E-02 -2.691216446547E-01 3.674699559005E-01 -5.601808201032E-02 -9.003059275983E-03 3.475819030188E-01 1.355511430788E-01 -1.955348801973E+01 3.468845838422E+01 -5.471847372085E-01 9.658931277262E-02 -2.480567841433E-01 2.630039368830E-01 3.716059144369E-01 -3.928511602734E-01 3.398320128645E-01 2.527947602770E-01 -4.908010590408E-01 -1.646045397272E-01 1.178255074356E-02 5.014783207604E-02 3.002956886402E-01 -1.220633614753E+03 -4.248829969271E+02 3.617662748338E+01 1.517255306448E-01 1.999499225205E-01 1.505101420941E-01 -1.173911900617E+03 4.237158912793E+02 -5.067375429246E+00 -4.715854020926E+02 -8.987921458541E+00 6.411706208526E+00 -1.978345589850E+01 -3.412259174225E+01 1.838983717950E+00 2.751458181377E+03
 -1.848584446898E-01 1.223099845457E-02 4.798344346091E-01 -1.829865838464E-02 1.461689032608E-01 -5.163309504473E-01 -1.410535981230E-01 -1.520880316809E-01 -3.869203658759E-02 -1.419972680354E-01 4.204176389452E-02 1.035422109654E-01 -1.388339729349E-01 -2.375447402036E-02 -2.815073789270E-01 -3.288924084544E+01 5.811692308788E+01 -9.706448679523E-01 1.569804347068E-01 1.905415294355E-01 -1.427248448922E-01 5.612402792650E-02 -1.058810527819E-01 -2.277545405278E-01 1.553426795326E-01 -1.515449673013E-01 2.595771935290E-01 1.398205737593E-01 9.303743898125E-02 -2.411606940981E-01 -4.280067265562E+02 -7.125432219093E+02 3.166622241672E+01 8.601565955151E-02 -5.902570372895E-02 -2.386481907946E-01 4.253116773905E+02 -7.151251444673E+02 2.178340557083E+01 7.050847457607E-03 -1.495396743916E+03 4.988707913359E+01 3.447072513835E+01 5.937269005133E+01 -3.005433871562E+00 3.289212356920E+00 2.805325053853E+03
 9.271749528064E-02 7.139992957716E-01 4.333255079300E+00 -6.690536259401E-01 -3.473345137112E-01 -8.856030275456E+00 7.085041565920E-03 -1.549224062196E-01 -1.190272439085E-01 6.517449720106E-02 2.333065332338E-01 -7.502893032933E-01 1.650045197417E-01 4.532650683995E-02 7.818972119680E-01 1.012596161278E+00 -1.164620290596E+00 9.810605057437E+00 -4.873185961662E-02 -1.566654430976E-01 9.464164139005E-01 3.351440682558E-01 -4.635914126055E-01 8.970734111061E-01 -4.895519051593E-01 5.415009231593E-01 -8.853152755291E-01 -3.350445891242E-01 -1.247229539367E-01 1.431047176545E+00 3.634933015404E+01 3.126389476745E+01 -8.391845573577E+01 3.584335840440E-01 -4.358897462832E-01 -9.781132674930E+00 -8.424169121851E-01 1.894324545501E+01 -8.160168264422E+01 5.568220661165E+00 5.250150952576E+01 -8.478624228956E+01 -1.105656974104E+00 -6.556896805425E-01 9.382597628597E+00 -3.751364073215E+01 -1.003632196764E+02 1.963769716134E+02
 -1.430716698124E-01 2.157118698295E-02 -5.389531121542E-03 -2.681109442295E-01 -2.118954211478E-02 -8.685719915513E-02 -2.872884450827E-01 2.219270214888E-02 -8.411014044640E-02 -5.175688118623E-01 3.961854629799E-01 3.473960491353E-02 -1.971242833158E-01 7.642209051140E-01 -9.596760412605E-02 1.693968699786E-01 2.022790458641E-01 -7.165247169212E-02 3.247700885878E-01 -3.543297112824E-01 3.342605257375E-02 5.821492488239E-01 -3.574079633431E-01 2.023264122974E-02 7.863953630492E-01 -1.199543880131E+00 1.220597597944E-01 3.401645247896E-01 -1.705176710628E-02 -3.060194021983E-02 3.271985810789E-01 -1.375592613246E-01 1.006936480167E-01 -1.504602698879E+03 -5.272723988779E+02 4.080898102261E+01 -1.352701017636E-01 -1.191312757165E-01 -2.767402430790E-01 -1.277237545138E+03 4.354454619222E+02 2.074383634738E+00 4.862362025835E+01 -1.786709397024E+00 -8.144880118855E-01 3.890040457462E+01 -1.935181453447E-01 -9.723576419666E-01 3.071940925296E+03
 2.817743830180E-02 -6.505541223462E-02 -1.694057841708E-02 -3.007997978104E-02 -4.098926165288E-02 2.088952004381E-01 4.747515591897E-02 8.989876165615E-02 3.073014019816E-03 6.619083145345E-02 -2.711753583470E-02 -2.751109204037E-02 2.598177810759E-02 1.907597611172E-02 9.465757316913E-02 1.958052758902E-02 1.900317072736E-03 5.110976306905E-02 -1.191192014067E-02 -2.284092139216E-02 6.002250634286E-02 -2.336372149043E-02 3.727634288781E-02 8.275740559211E-02 -1.100367850679E-01 8.959325276705E-02 -5.947116330218E-02 -4.876778712013E-02 -6.692156596110E-02 1.402746096452E-01 -3.532434900644E-02 -6.534014843003E-02 1.301096668187E-01 -5.376437339190E+02 -8.652517963969E+02 3.666384580610E+01 -5.774246070936E-02 -3.376724492351E-02 -2.149196575610E-01 4.199747670161E+02 -7.254019933428E+02 1.637604414340E+01 -8.576888010901E+01 2.221854069246E+00 1.869336022174E+00 7.202822126891E+01 -1.646792453402E-01 -1.033736815380E+00 8.936873682366E+01 2.537125923422E+03
 -1.476009466954E-02 4.337704764321E-02 -3.799004277868E-03 1.114398926175E-02 2.251374418621E-01 4.727478572565E+00 1.042483839048E-02 3.688630900543E-02 3.777598763478E-02 -1.067512180393E-02 9.597552431305E-02 -1.264008871434E-01 2.152442403639E-02 1.354412923552E-01 1.517609061845E-01 2.019725163699E-02 -2.918770198737E-02 9.343188383296E-02 1.364998638526E-02 -8.970485197668E-02 9.190708196598E-02 1.089487621081E-01 -1.162726425888E-01 9.904138775384E-02 -1.007187753128E-01 -6.131701926951E-04 -6.004852428459E-02 -6.123615194965E-02 -5.852254000604E-02 3.283385593453E-01 -7.810845055604E-02 -2.837842628364E-01 -1.035653745901E+01 4.106991684955E+01 3.689331119207E+01 -7.197890970752E+01 -1.680353950737E-02 1.961422800241E-01 4.497768511818E+00 3.353055178521E+00 1.588447652877E+01 -7.694753673817E+01 2.736641195045E+00 1.369012278750E-01 1.116343566897E+01 -3.054082994193E+00 3.517807760039E-01 1.011578400280E+01 -4.770455243603E+01 -8.458161107053E+01 1.544518703548E+02
 -6.897419835133E-02 6.903754047288E-01 -6.595743669176E-01 -1.226738427027E+03 4.459870968036E+02 -1.572197678508E+01 2.945780969480E-02 -5.563300741757E-01 5.988728907900E-03 2.258739048451E-02 1.966219514857E-01 -3.879783979652E-01 1.461695866614E-01 -1.817429732353E-01 3.417946953184E-01 4.023601037855E+01 -7.923583643395E-01 -1.501282091388E-01 -1.061660135185E-01 6.132846642538E-02 3.009003520759E-01 -1.979958656822E+01 3.542502543813E+01 -1.353453271493E+00 -3.406142315703E-01 3.478878806609E-01 -3.292010453903E-01 -2.889227513767E-01 1.885684499915E-01 5.288505699265E-01 8.682516134184E-02 -3.771881055052E-01 -1.004489391795E-01 6.764014632352E-02 -2.052185892386E-02 2.621670247702E-01 2.931175707871E-01 6.329505522159E-01 -1.839312050549E-01 -1.137620687666E+03 -3.892267936416E+02 2.542828361009E+01 2.848211015141E-02 2.819218199861E-03 -4.531874842555E-02 3.678397657834E+01 -2.592375778148E-01 6.709134012055E-01 -1.781027808106E+01 -3.236469297854E+01 1.560827192342E+00 2.730529907457E+03
 -3.500383869709E-01 8.885330580268E-01 3.026352258471E-01 4.554049344829E+02 -7.417085602093E+02 2.690444278644E+01 -1.438214338177E-01 -4.754999935636E-01 -9.787233485611E-02 -3.093703821193E-01 4.257732341776E-01 4.239599207706E-01 -8.151116830990E-02 1.318660547113E-01 -2.933222998308E-01 6.705838564506E+01 -1.017847112275E+00 1.805078686791E-01 6.894930904770E-02 -6.218588426476E-02 8.354393372769E-03 -3.279941256726E+01 5.898889219786E+01 -1.585684202803E+00 3.529374882414E-01 -6.005725259114E-01 2.064136685301E-01 8.447351962315E-02 3.111251749501E-01 -2.453209110128E-01 2.939377049654E-01 -3.286410748199E-01 2.038854463046E-01 2.280755969049E-01 2.934048239165E-01 -1.068907851094E-01 3.946956008229E-01 5.422663058011E-01 -1.352923729489E+00 -3.872886090641E+02 -6.667749478127E+02 2.863815484769E+01 -2.779600057381E-01 -3.819406275720E-01 7.765968967868E-02 -6.542906491508E+01 2.684226569643E-02 3.385663343463E-01 3.101927875320E+01 5.748769250525E+01 -2.108671977103E+00 -7.374485863076E+00 2.814779908106E+03
 -1.299876537853E-01 7.899876323726E-01 4.445194863909E+00 -1.634434429531E+01 2.652486900296E+01 -8.355853915873E+01 2.737348274100E-02 -1.953420989250E-02 -5.480387222984E-02 3.812757392962E-01 2.389935293051E-01 4.299809534580E+00 1.464164804270E-01 -1.259448090749E-01 3.223293312289E-01 -2.043092754579E+00 2.546499550975E-02 9.237643271998E+00 -2.340411175593E-01 -2.871203937209E-01 4.337696991331E-01 1.075760280762E+00 -1.573833336308E+00 1.011822903679E+01 -3.198005220110E-01 3.232718879207E-01 -4.189484458211E-01 -2.228332996303E-01 1.452466724196E-01 6.249206059246E-01 4.692174108393E-01 2.542040497763E-01 4.339144900827E+00 -3.145495190537E-01 3.532379019240E-01 5.789782979511E+00 -2.804985032553E-01 -1.810257148104E-01 -9.032640970233E+00 2.601958554185E+01 2.713879950052E+01 -8.194068690948E+01 1.780183764375E-01 -2.981959759894E-01 -3.178696023572E-01 1.867448228070E+00 5.071432119181E-01 8.642539050423E+00 -1.795556776171E-01 -8.517804347432E-01 9.760688325273E+00 -1.307918128708E+01 -1.207519941532E+02 1.922198678701E+02