#BIOSYM hessian 1
@Type: Hessian Update
@Units
 distance: 	A
 energy: 	Kcal/Mol
#header
@natom 67

#label
C1      C2      C3      C4      C5      C6      C7      C8      C9      C10     C11     C12     C13     C14     C15     C16     C17     C18     C19     C20     C21     C22     C23     H24     C25     C26     C27     C28     C29     C30     C31     C32     C33     C34     C35     C36     C37     C38     C39     C40     C41     C42     C43     C44     C45     C46     C47     C48     C49     H50     H51     H52     H53     H54     H55     H56     H57     H58     H59     H60     H61     H62     H63     H64     H65     H66     H67

#element
C  C  C  C  C  C  C  C  C  C  C  C  C  C  C  C  C  C  C  C  C  C  C  H  C  C  C  C  C  C  C  C  C  C  C  C  C  C  C  C  C  C  C  C  C  C  C  C  C  H  H  H  H  H  H  H  H  H  H  H  H  H  H  H  H  H  H 

#matrix
201
 2.783988749395E+03
 -2.324270555656E+01 2.813965531318E+03
 2.543890795990E+01 -2.285106157092E+01 1.942714871442E+02
 4.024155545961E+01 6.698628027617E+01 -1.356379273440E+00 2.791005194020E+03
 -9.596522744710E-01 -5.354451754394E-01 4.924822007072E-01 -2.308143403465E+01 2.766272752368E+03
 1.520939155546E-02 5.525595549883E-01 8.160909584695E+00 1.382654415441E+01 -3.693626564667E+01 1.914485621042E+02
 -2.533317239965E+01 3.120368131740E+01 -1.962382971418E-01 5.707845902456E-01 -2.109819302430E+00 -4.251221880779E-01 2.770894538701E+03
 -3.327714546939E+01 6.028923376205E+01 -1.413284539123E+00 9.604773096882E-04 4.007465008651E-02 7.121652698367E-03 -2.267243045136E+01 2.812474877639E+03
 -1.787223526788E-01 6.895101598510E-02 1.002679345386E+01 -4.343313785749E-01 9.823175456557E-02 -6.444229776683E-02 4.237398349570E+01 -4.169690545536E+01 2.000476696159E+02
 3.648605396428E+01 -6.881180066839E+01 1.654650315052E+00 -1.925707343499E+01 3.456125193320E+01 -7.415527507250E-01 3.509065340634E+01 7.275196548130E+01 -1.396367663562E+00 2.778521516719E+03
 5.898966284499E-01 7.023096731733E-01 5.186286919434E-01 -3.260169986407E+01 5.902565483426E+01 -1.043915658595E+00 3.450504693315E+00 -2.775968917665E-02 5.179327498481E-01 -1.935886372447E+01 2.831043389181E+03
 6.424623764986E-01 -5.132116777167E-01 9.208032770799E+00 -2.157215305528E-02 -7.205783406086E-01 9.435813062889E+00 1.144945893674E+00 1.379708020155E+00 1.163832796255E+01 2.428027561242E+01 -4.429064221029E+01 1.969068786080E+02
 -1.261390359457E+00 -1.080189342301E+00 1.501427867864E-01 9.483215814023E-01 -8.462261771235E-01 8.050331736462E-02 2.999117706543E+01 -7.166244365104E+01 2.178147790579E+00 -2.258133027019E+01 3.549755341320E+01 -1.156098516574E+00 2.622130452390E+03
 1.706685942538E+00 1.696791221787E+00 1.530401346442E+00 1.159931066412E+00 3.616735711355E-02 -5.671063989809E-02 1.269599472756E+01 -4.583741034327E+00 1.952912706303E+00 -3.248333275215E+01 5.703251275786E+01 -7.926099793253E-01 -2.298766026088E+02 2.887927485395E+03
 -4.802802530009E-01 -3.716556008352E-01 -1.298858939874E+00 4.303197489284E-01 -8.006835086116E-02 2.354624225542E-01 -2.731013380282E+00 -1.735274683306E-02 5.699840187549E+00 -6.240520177419E-01 -6.063182676919E-01 8.198818857586E+00 3.548073875742E+01 -6.496852082892E+01 1.624182844020E+02
 -1.230043645481E+03 4.478715217038E+02 -1.351245767020E+01 -4.642791778793E+02 -7.023059555950E+00 -2.276867487094E+00 1.522116315769E+00 -3.071305581828E-02 -4.254613448445E-02 -1.847600663302E-02 2.967200756656E-01 1.872701856665E-01 4.858294412034E-03 -2.729123199053E-01 1.757473727122E-01 2.822136764046E+03
 4.420728449680E+02 -7.408090018794E+02 1.046474446317E+01 -6.140526891772E+00 -1.432747166882E+03 1.776706184217E+01 6.682959402047E-01 1.711313847470E-01 6.864307142379E-02 9.796491839934E-01 7.585058340997E-01 -3.848049469666E-01 1.572353023921E+00 9.033669889775E-01 -3.412877113698E-01 -3.517699080094E+00 2.780046339633E+03
 -1.406604955905E+01 1.012920213454E+01 -8.272976066378E+01 -2.282445252047E+00 1.779470303799E+01 -8.134653413512E+01 -2.193449189601E-01 2.937412795296E-01 3.496402439949E+00 -9.536268142370E-02 5.623956191154E-01 -1.003392854006E+01 1.135297353684E-01 8.697216646774E-01 4.020517472974E-01 1.690634723301E+01 -3.211118278900E+01 1.938399210484E+02
 -1.190214417071E+03 -4.114372534854E+02 -8.659896764539E+00 -4.762707694587E-01 1.252831992787E+00 2.010634634292E-01 -1.249688143842E+03 4.424284491817E+02 -2.500314621143E+01 -4.740694788894E+02 -9.160505928476E+00 -5.250643807353E+00 9.481309016749E-01 -6.920809009738E+00 2.506842191828E+00 -1.997965358463E+01 -3.349798363914E+01 4.795078611768E-01 2.806867085755E+03
 -4.137955262566E+02 -6.984634281813E+02 2.957905170678E+00 -1.958014557567E-01 5.841078672225E-01 -4.450012993089E-01 4.388944477303E+02 -7.527459821869E+02 1.763995826858E+01 -8.822643685470E+00 -1.507976373738E+03 2.352664606048E+01 3.643968263095E+00 7.847393642542E+00 -1.688968307960E+00 3.389533789867E+01 5.767648078479E+01 -4.836614702052E-01 -2.398127540916E+01 2.840003589627E+03
 -8.283823663547E+00 1.801251684129E+00 -8.178384523431E+01 3.081358090120E-01 -1.067093366554E-01 -8.685155129455E+00 -2.650397702745E+01 1.802063539857E+01 -8.961077083453E+01 -4.020266935790E+00 2.433166699551E+01 -8.596064567048E+01 4.535906793986E-01 1.846563405997E-01 -7.677021668128E+00 -4.613511435143E-01 -3.775701406834E-01 9.224899892193E+00 3.820527801295E+01 -4.404948856347E+01 1.998661800587E+02
 1.968797487706E-01 6.638040453017E-01 5.001098681271E-01 -1.219174852700E+03 -4.211727802177E+02 -1.145365840883E-01 3.647555554825E+00 -9.421329258728E-01 1.079192709671E-01 -1.227732865961E+03 4.339908440675E+02 -1.683193907491E+01 -1.267048420327E+00 -4.897086151775E+00 5.662049020812E-01 3.680989601176E+01 5.885211159403E-01 3.407818346479E-01 3.893774759459E+01 3.620641767332E+00 6.075339113576E-01 2.805020542591E+03
 2.562281463401E-02 -2.080512396586E-01 -2.702962885924E-01 -4.237603798542E+02 -7.037872413048E+02 7.551669987972E+00 -2.762262135776E+00 4.623013671189E-01 -1.051521616582E-01 4.348377735621E+02 -7.359981004472E+02 1.514360509822E+01 4.575356019150E-01 2.863022208037E+00 -7.370016755345E-02 -6.628817395860E+01 -3.777205667861E-01 -6.349919058431E-01 7.234533049177E+01 -2.753107612563E+00 1.431958558819E-01 8.140419598242E-02 2.806684540339E+03
 -1.768197352623E-01 -1.166546836245E-01 -9.186136747998E+00 4.704207528309E-02 7.554579387818E+00 -8.174300881990E+01 -2.717203648290E-01 5.315079087879E-01 4.604083262170E+00 -1.660569744387E+01 1.577085366808E+01 -8.485210523522E+01 5.931946585739E-01 1.628777562682E+00 5.376830274463E+00 8.818486439664E-01 1.269748556494E-01 9.114870115888E+00 -5.201339950444E-01 -6.933208985654E-01 1.075000421265E+01 1.956587731233E+01 -4.770967262773E+01 1.971515620436E+02
 9.302024325990E+00 5.867604622592E+00 -2.069638072295E+00 -2.603644744677E-01 2.655192720803E+00 8.571377817334E-01 -1.137879546093E+03 -4.192412208531E+02 -1.357867622526E+01 1.022389000462E+01 -7.008954377175E+00 -1.752754938772E+00 -4.919525406563E+02 -1.400274982478E-01 3.241984247029E+00 -1.850418103264E+00 -1.629080186745E+00 7.533372879139E-02 -4.275599145945E+01 -2.426255361423E+01 1.584878537630E+00 -6.819894497570E+00 5.660555729311E+00 -1.021173384973E+00 2.709141918579E+03
 -2.304577669764E+00 -3.193400902893E+00 -1.039042348208E+00 -3.203760130325E+00 1.312625391779E+00 -3.211869400069E-01 -4.366131879964E+02 -6.923842080678E+02 4.226023554670E+00 -4.235265948570E+00 1.678157987908E+01 -2.817835699791E-01 3.194241743023E+01 -1.611424542535E+03 3.423416917104E+01 -5.926588913168E-02 -2.857619265663E+00 -1.243086119172E+00 4.767312873093E+01 4.208465864733E+01 -1.301590437154E+00 1.163904012558E+01 -7.766284289458E+00 -2.051768392475E+00 1.146914426382E+01 2.890111090971E+03
 -9.837201774647E-01 5.759237080537E-01 7.673885961742E+00 -1.253471767371E+00 5.456979578578E-01 -1.002854794750E+00 -1.009286679178E+01 6.097529768614E+00 -8.043115237543E+01 2.576947641605E-01 1.488261700132E+00 -9.023297494655E+00 -5.756951690512E+00 4.236790271011E+01 -8.099211184441E+01 3.972527307439E-01 -3.398568182976E-01 1.883418853721E+00 3.092988313698E-01 -2.343737402795E+00 7.625672504769E+00 9.809253561915E-01 -8.062978659891E-01 -3.889017044397E-01 4.476604264683E+01 -6.986795350880E+01 2.009260659236E+02
 1.566783327363E+00 7.734648355712E-01 -1.441329644095E-01 -9.775685427449E-01 1.153803328804E+00 -1.934195793755E-01 9.363465040958E+00 5.545797287241E-01 7.714401130061E-01 -1.189000388243E+03 -4.173165365401E+02 -3.162488713139E+00 -1.336844312661E+03 4.870537419876E+02 -2.441069305390E+01 -2.275672109614E-01 -1.668888486331E+00 -9.771953074577E-02 3.633589849052E+01 -2.822789783901E+00 -8.802925458514E-01 -1.741827625254E+01 -3.400337440049E+01 -5.929048809670E-01 3.427874744553E+01 -9.469137217393E+00 -7.027762995479E-01 2.877733188838E+03
 -6.682539915134E-01 -3.860879481506E-01 -4.234610798945E-01 -2.330973017998E-02 -3.755415345217E-01 1.015858096661E-02 -3.565890124299E+00 8.800833428762E-01 -1.216891694504E-01 -4.130365171975E+02 -7.047516469627E+02 7.174881593114E+00 4.850226735726E+02 -8.169497132757E+02 2.100619094594E+01 1.816118740117E-01 2.697358819708E-02 -3.998329855026E-01 -6.587651726186E+01 -1.741521185445E+00 -9.854904922105E-01 3.486011917367E+01 5.801645646968E+01 -1.066639546130E+00 8.928234612743E+01 -2.632550229230E+00 -1.079349064751E-01 -8.865403844505E+01 2.842751480088E+03
 -2.333054415125E-01 -3.577612081974E-01 2.139895039022E+00 4.998400470835E-01 -2.953403261659E-01 5.310701777676E+00 -1.645747915927E+00 -2.605113160626E-01 -1.196505359336E+01 -3.462135789155E+00 6.269556207616E+00 -8.385158691722E+01 -2.372253686062E+01 1.877235786956E+01 -7.608753716211E+01 8.358366791186E-02 -3.565579568001E-02 -1.021672599376E+00 2.040933140718E+00 1.474399802542E-01 1.320458237890E+01 -8.066883823272E-01 -8.171443675487E-01 9.701655449447E+00 3.004931282333E+00 3.249127868213E-01 4.170686659134E+00 3.101341658736E+01 -5.235418166811E+01 1.899751215021E+02
 1.006639425163E-01 8.623984971974E-03 -1.176590311005E-01 3.706232569453E-02 -4.600076646464E-03 -5.540980806089E-02 1.999510578989E-01 -7.850211277527E-02 -3.187840463885E-03 3.186061066173E-02 -6.545631912705E-02 1.188354574776E-02 -5.050992237843E-02 -1.440975777547E-01 3.394820972004E-02 -7.346349673129E-02 -5.863023039750E-03 -2.124899978211E-01 -2.119794021632E-01 1.230634199686E-01 -1.298230126726E-01 -4.593828207273E-02 3.845152315742E-02 -1.365042576878E-01 -1.145387326849E-01 2.368881044784E-01 -1.145375306706E-01 6.969399902609E-02 7.076777525499E-02 4.693847477421E-02 2.810515230090E+03
 -3.071418571187E-02 1.478524172368E-02 -4.988332602240E-02 5.760849759649E-02 -4.975262122940E-02 5.082700209823E-02 -2.057764604785E-01 -3.098588242119E-02 -3.363651551674E-02 -7.703016425924E-02 -2.917244744667E-01 2.713959085777E-02 -5.162900521890E-01 -2.939158241203E-01 4.471588196352E-02 6.350352839779E-02 4.832964586440E-02 9.294119570239E-02 -1.057482297189E-01 2.311600037130E-01 -8.230540052329E-02 -1.809540809992E-01 1.157236134807E-01 1.813761387984E-02 4.786866696847E-01 1.059735009880E+00 1.365347187930E-01 6.109852102900E-01 6.022784800728E-03 -4.119131149500E-02 2.336385811725E+00 2.799752188455E+03
 2.121184749249E-02 -7.662092343676E-02 7.860240151491E-01 8.116178773121E-03 5.192781654061E-02 -3.110599680017E-01 1.154612518524E-02 -9.613079470626E-02 -9.768523516658E-01 -2.086120825792E-02 -1.217623017673E-01 -7.446097885394E-01 -1.599425541157E-01 -7.908562975011E-02 1.118452137314E-01 7.642871347694E-02 4.967919913283E-02 5.462882185927E+00 -1.393997872950E-02 1.618793310519E-01 -8.361671752619E-02 1.880960368221E-02 6.426084233241E-02 -4.221969648023E-01 2.057963789177E-02 3.229612613335E-01 1.838689491004E+00 2.765923925977E-01 7.449287346669E-03 -1.392185121499E+00 -6.904323295968E+00 -2.746128431018E+01 1.949108355991E+02
 -9.275077801918E-02 -7.856129103966E-02 1.077132184341E-01 1.356919873526E-01 -1.276611338190E-01 -3.247724287951E-02 -5.493312381869E-01 -3.585851204241E-02 1.396024387675E-01 6.992740282975E-04 -1.709184777717E-01 5.135527234643E-02 -1.424663844310E-01 -1.673951092758E-01 -2.942996385722E-01 1.910359296686E-02 8.118306004452E-02 3.076369473730E-02 1.503873145847E-01 2.058814535215E-01 -9.387121467103E-02 -1.224852039893E-01 9.733401277606E-02 -1.242671229716E-01 5.781457591904E-01 5.217999197524E-01 8.159496784372E-02 1.342643105697E-01 2.776912798365E-02 -1.649565495385E-01 4.168531937497E+01 7.163686130543E+01 -1.176703989961E+00 2.783470091838E+03
 -1.768626675774E-01 -9.145052746398E-02 2.019493575071E-02 1.644083126385E-01 -1.106814447581E-01 -3.729995194737E-02 -8.695862683030E-01 6.633000761461E-02 -1.044087664502E-01 -7.426771766645E-02 -2.893463085303E-01 -5.096862576942E-02 -5.066450259189E-01 -3.305198023346E-01 7.477596216779E-02 5.724625216320E-02 1.109388113251E-01 2.536134577101E-02 2.072582256250E-01 2.363039715831E-01 4.197605527991E-02 -1.801223654475E-01 8.963807172625E-02 3.649387009479E-02 1.363998328534E+00 1.055001955146E+00 -8.303039364642E-02 5.328394491178E-01 -2.388898709811E-02 1.248146819579E-02 -1.036229649559E+00 -1.862546850251E+00 1.070727021494E-01 2.776878992738E+02 2.858022213437E+03
 -1.491423089499E-01 1.799419269479E-02 3.656402039245E-02 -2.469241085685E-01 1.492205103511E-01 1.388546296352E-01 -3.344277453459E-01 2.719514612426E-01 -5.143142038631E-01 1.216672778347E-01 6.955138591132E-01 -3.965817363947E-01 4.745496577597E-01 1.160969973167E+00 3.701999351640E-01 -1.293966711898E-02 -5.797994465704E-02 3.466224609136E-01 3.580154280860E-01 -6.740616262293E-01 1.198792811314E+00 4.515698758635E-01 -4.744579711631E-01 1.073843832824E+00 -2.866507831543E-01 -1.792886901650E+00 -1.039851025791E-01 -6.971261739935E-01 -4.708476372193E-01 8.204538078101E-01 -2.232970572645E-01 -8.101605175278E-02 1.074145251881E+01 -1.092017123007E+01 -3.635685314679E+01 1.503052708076E+02
 -2.019637943526E+01 -3.430413024393E+01 -2.064199926240E-02 3.838278800151E+01 -2.948148305468E-01 3.931867553832E-01 -5.645758153501E-02 -2.480433650427E-01 -2.566026925867E-02 9.859583955075E-02 -2.505020474629E-01 1.506631944899E-02 -2.177461782174E-01 -2.960063583595E-01 -5.861877968744E-02 -1.247026286313E+03 -4.336501430811E+02 -1.274292216666E+00 -2.488496859370E-01 2.985838115604E-01 -4.218502692607E-01 -3.081915669574E-02 -1.905078948697E-02 -1.238572245709E-01 2.589861948189E-01 8.025916344732E-01 -1.970968081627E-01 3.715409470090E-01 3.707364787749E-02 -1.780358102396E-02 -1.932433558691E+01 3.418093831986E+01 -2.808190669715E-01 -2.150125011103E-02 -8.399773196867E-03 -9.713200752557E-02 2.776843647424E+03
 3.543373161826E+01 6.067005423470E+01 -2.732484847996E-01 -6.758327947171E+01 1.410495525730E-01 -2.417526243422E-01 -2.137400274084E+00 2.590138717530E-01 2.404651395502E-02 -4.258713256768E-01 -6.651860982003E-01 1.293964736344E-01 -1.504939481651E+00 -4.167808501250E-01 -1.120326139056E-01 -4.381287963043E+02 -7.227872996897E+02 4.237682193163E+00 6.627050944448E-01 3.872076047293E-01 7.240931239648E-02 -5.155417668239E-01 3.068437686958E-01 4.710052720223E-01 2.992571457966E+00 2.674309969122E+00 6.190626952322E-01 1.711640007143E+00 -2.094959890744E-01 -3.044648803167E-01 -3.234679648411E+01 5.708811591064E+01 -6.424817800888E-01 -1.514374680345E-01 -1.897336778832E-01 2.410218024714E-01 1.859921515611E+01 2.804631021544E+03
 -3.540611435179E-01 -1.033961265677E+00 9.809665364919E+00 1.302559931088E+00 8.656547832638E-02 9.107484059903E+00 4.772310525533E-01 -2.096707989162E-01 8.577611075256E-02 7.126209605254E-02 -1.491395236081E-02 3.884826830285E-02 -6.546472349426E-02 -2.796779429511E-01 -1.140701725383E-01 -1.607371134307E+00 4.697279928590E+00 -8.306349177264E+01 -2.931320908547E-01 3.388392568238E-01 4.623807724098E+00 -2.035861220591E-01 3.130701140622E-02 4.516155210643E+00 -7.542147131878E-01 7.578143655759E-01 -1.364798987270E-01 7.086987081919E-02 2.745380078268E-02 2.012465339387E-01 3.350287753635E-01 -8.888617325738E-01 8.686740178468E+00 1.152086704964E-01 6.938970497950E-02 2.322442748182E-02 8.191734293040E+00 -2.098615891864E+01 1.913013565718E+02
 -2.010381686470E-01 -9.833383856963E-02 1.198768776198E-01 -1.864555329976E+01 -3.163214195126E+01 2.806931334980E-01 -1.118571725498E+00 1.465423667404E-01 -1.417536638068E-02 2.374243171212E-03 -5.038261848156E-01 -2.979220608328E-02 -7.674718592492E-01 -4.968415830501E-01 -1.306228054445E-01 -8.204917186666E-02 3.025775651136E-01 1.846054546395E-01 1.492659809364E-02 6.289268942007E-01 1.272519869640E-01 -4.191223129872E-01 1.934480262805E-01 2.985765254485E-02 1.290128989558E+00 2.219385311013E+00 1.510208096950E-01 8.203254500847E-01 -2.160157466483E-02 -7.347180080716E-02 3.937290228817E+01 -6.942174270757E+01 1.001308685428E+00 -2.298848515491E+01 4.026269913175E+01 -3.261157886255E-01 3.993036604812E+01 6.671453486889E+01 -1.016833397024E+00 2.771829907695E+03
 4.331194413225E-02 -3.431586090093E-02 1.724732291533E-01 3.354481294097E+01 5.560635379249E+01 -7.127935446902E-01 -1.392869312982E-01 -1.152867559944E-01 -1.106075030231E-01 9.491037886868E-02 -3.086871108558E-01 -1.128161584099E-01 -2.193111426601E-01 -3.200092666369E-01 4.648519988967E-02 2.025666754485E-01 1.727872375998E-01 1.056337350788E-01 -1.423440873469E-01 4.189075198028E-01 -1.547430486719E-02 -1.271584874944E-01 6.338929254240E-02 6.700174309307E-03 1.614169241497E-01 9.469413171286E-01 -3.710645684474E-02 2.984889188528E-01 1.596953987049E-02 -9.197902854276E-03 -4.711074838588E-02 1.208168073813E-01 1.049649137624E-01 -4.213780544442E+01 7.398018791201E+01 -7.705563285276E-01 -1.866078322449E-01 -3.171564443082E-01 9.552819639427E-02 -3.841457099631E+01 2.757084366316E+03
 2.169702418441E-01 1.068366702174E-01 -8.459035878343E-01 -4.909020516051E-01 -1.219602093173E+00 8.572327551021E+00 1.970229002788E-01 2.601661455055E-02 1.380667430937E+00 8.216323129634E-02 1.253198889961E-01 9.835982424709E-01 1.986411366120E-01 3.290611488654E-01 -5.095183255894E-01 -3.721075060195E-01 -3.557797730165E-01 -9.996906045552E+00 -1.395820770844E-01 -1.292774836841E-01 1.935179723260E-01 2.502831250535E-01 5.693367766714E-02 4.954991360286E+00 -6.224500116289E-01 -4.498319486987E-01 -1.824265042454E+00 -2.775024302360E-01 -1.811999611749E-03 1.609407571803E+00 -1.831342458639E-01 1.912336551301E-01 8.276880996345E+00 6.335850008363E-01 -1.107411123091E+00 1.273829261855E+01 -7.649027222247E-02 4.621410058865E-01 8.956179529664E+00 -1.433250160491E+00 -3.311701550954E+01 1.867436764218E+02
 8.549509255077E-02 5.506935511133E-02 -1.044265626260E-01 -9.614361423292E-02 1.012444989371E-01 5.754976859956E-02 6.511371193539E-01 -1.432550846340E-02 -1.469625014778E-01 7.615745144198E-02 1.252635639708E-01 -7.689508488981E-02 3.240746023005E-01 8.775773835636E-03 2.716074159820E-01 2.807751985928E-03 -9.450979471812E-02 4.597583824858E-03 -1.434473040079E-01 -1.604803293178E-01 1.102309315833E-01 9.931558576360E-02 -4.424064005749E-02 6.950401269097E-02 -8.322512280930E-01 -4.923454457609E-01 -2.511407882216E-01 -3.545183218981E-01 2.972515622816E-02 1.765902620295E-01 -1.233824566025E+03 4.343801396792E+02 -1.508000798835E+00 -5.071564644005E+02 -1.754903446295E+01 1.688132396603E+00 -1.131540872567E-02 1.071201612404E-01 -1.627288433685E-01 7.616680623789E-02 1.039094611837E-01 6.969849590540E-02 2.843266466195E+03
 2.375665358480E-01 7.818176855499E-02 -5.686107696483E-02 -1.676192348866E-01 1.032464236423E-01 3.799861885125E-02 1.099822430080E+00 -9.247267822742E-02 -1.855090570789E-02 1.333030244627E-01 3.432007153833E-01 -4.188517595528E-02 7.686224215155E-01 2.424619921105E-01 1.357556140791E-01 -7.085946255174E-02 -1.228926398380E-01 2.043746727838E-03 -2.087334866693E-01 -2.687037115596E-01 3.385609152957E-02 2.352621626808E-01 -8.398129463517E-02 -1.214371266720E-01 -1.550249663372E+00 -1.412785205282E+00 -2.720872669536E-01 -8.556088444175E-01 8.759270497139E-02 1.515421499916E-01 4.364270727879E+02 -7.322906689554E+02 6.114612891407E+00 -2.751912827557E+01 -1.541095711411E+03 1.936197781851E+01 1.679042747882E-02 1.665827799344E-01 1.120632591030E-01 1.633244602194E-01 -3.131236504617E-03 -4.211301043730E-02 2.901372478726E+01 2.892035199215E+03
 7.680995012164E-02 -1.832586789372E-01 -1.639539905792E+00 5.001094642906E-01 -3.054981080488E-01 4.877429811880E-01 -4.185717448095E-01 -3.059669036143E-01 7.816795641726E-01 1.075529789145E-03 -7.967653236952E-01 8.003843914336E-01 -4.590389265207E-01 -1.856513233468E+00 7.587479247226E-01 -3.128304582099E-02 1.364136173915E-01 -1.695972531994E+00 -1.800908500517E-01 6.533370545718E-01 -1.189642649466E-01 -5.231692884586E-01 4.691448488359E-01 -1.630735309418E-01 2.008101328119E+00 2.120007057486E+00 -4.129746977978E+00 3.133236159338E-01 5.065277158546E-01 2.550412447010E+00 -1.663837280862E+00 6.003186012169E+00 -8.664343548886E+01 1.786497920509E+00 1.934580330718E+01 -7.747563528601E+01 1.478910712987E-01 -3.629470084305E-01 4.595515368628E+00 -2.040078386320E-01 -1.506831355042E-01 -8.890819695717E+00 -9.481746814661E+00 -3.466602419746E+01 1.872624109458E+02
 -1.820692458976E-01 -2.652669360849E-02 -6.246207266178E-02 1.085515683712E-01 -8.690443230382E-03 1.885366257580E-01 -5.891215204425E-01 1.103384832896E-01 -1.773052697989E-01 -1.566736280075E-01 -2.235110055359E-01 -4.552968301817E-02 -5.130279598579E-01 -3.086442950570E-01 1.765710116355E-01 -1.956672403308E+01 3.469359898223E+01 -2.845060232922E-01 2.089215452341E-01 6.863099724077E-02 1.913085971291E-01 -1.739383734024E-01 1.646009800299E-01 1.954161093326E-01 9.936477719084E-01 1.002135805114E+00 2.282669760877E-03 5.057293635195E-01 -2.633702137022E-02 8.441502105359E-02 -1.223006299096E+03 -4.247819103930E+02 6.808468762126E+00 -9.604697282586E-02 3.183199807363E-02 3.902759207284E-02 -1.173462875147E+03 4.236881073023E+02 -5.827236891310E+00 -4.722407535355E+02 -9.316249383544E+00 6.621986095882E-01 -1.960458171684E+01 -3.383626591547E+01 3.322179099634E-01 2.753377442533E+03
 2.540741535787E-01 -2.757793193948E-02 -6.138191049655E-02 1.273551617000E-02 9.203449597248E-02 -3.505083051202E-01 1.163374269087E+00 -1.907998163632E-01 3.741649941853E-01 1.965150720867E-01 3.070722086789E-01 1.542718041891E-01 9.133232390402E-01 1.141791820435E-01 -4.127735244248E-01 -3.313095262139E+01 5.816060003349E+01 -5.776648741044E-01 -2.510670709258E-01 -1.626132269913E-01 -1.561498817923E-01 1.626151794868E-01 -1.504534546021E-03 -3.854688132015E-01 -1.876539692802E+00 -1.379093449493E+00 -1.759701338746E-01 -1.091176599584E+00 2.087885136249E-01 -6.573675411532E-02 -4.280593563441E+02 -7.120297533770E+02 8.366204137391E+00 2.391525876420E-01 1.567581535670E-01 -4.188145839250E-01 4.252721468116E+02 -7.160952391089E+02 7.471568913458E+00 1.767911742324E-01 -1.496955237172E+03 1.757638271688E+01 3.440473735796E+01 5.958331740066E+01 -2.610441260484E-01 3.278949487381E+00 2.807414404766E+03
 2.269426955733E-02 1.231342630468E-01 4.920849011442E+00 -5.225433503517E-01 2.751869843845E-01 -8.819882113136E+00 4.742184577856E-02 2.645709105316E-01 -2.919667715908E-01 -3.652337859904E-03 6.114003754825E-01 -2.823739904600E-01 3.023535756606E-01 1.193671588640E+00 1.581214697633E-02 2.710463150199E-01 -5.048431732735E-02 9.454207102985E+00 2.085730461708E-01 -4.675747132891E-01 7.147140312877E-01 4.386691297061E-01 -4.739595355223E-01 7.896842953122E-01 -8.597246762775E-01 -1.444724052687E+00 8.663282473013E-01 -3.460747004304E-01 -4.300625734943E-01 -4.092729949902E-02 6.913019429406E+00 8.087637600187E+00 -8.219603871307E+01 1.191431443713E-01 -6.839325150608E-02 -9.892841095773E+00 -6.223337452378E+00 6.872981160864E+00 -8.054417292489E+01 5.030591981533E-01 1.808004211438E+01 -8.264156079773E+01 -3.629878418207E-01 -3.651535716673E-01 9.042206712373E+00 -1.334725316565E+00 -3.283984268994E+01 1.914840297882E+02
 2.459105430981E-01 5.479667899844E-02 -1.415153271529E-01 -1.708008643531E-01 1.250195816243E-01 7.010491378612E-03 1.154954631718E+00 -1.860055290366E-01 -1.396127035634E-02 1.324811067097E-01 3.999447995410E-01 -1.898894278477E-02 7.253905929102E-01 3.607631272453E-01 -3.691176757057E-02 -5.388087677674E-02 -1.763513685685E-01 -9.428370125227E-02 -2.655328032015E-01 -3.803138019579E-01 -1.627071050887E-02 3.110011057628E-01 -1.408460361376E-01 -7.737721148549E-02 -1.615922613709E+00 -1.530374419070E+00 -1.047349168027E-01 -7.871571300736E-01 5.632835634170E-02 1.091126937246E-01 -3.838552524203E-02 8.381371384467E-02 4.078119551739E-02 -1.506670957021E+03 -5.276502712431E+02 1.071349242019E+01 1.023348765324E-01 2.274097388371E-01 1.984230980267E-02 -1.277189033074E+03 4.355499178380E+02 -4.263286216752E+00 4.869599444617E+01 -1.305414376886E+00 -3.345298206071E-02 3.948263522918E+01 -2.433096126007E-01 -2.144463790316E-01 3.074095871399E+03
 -2.030673809152E-02 1.342058597832E-02 -7.806208260556E-02 5.865147228482E-02 -5.921498217709E-03 9.053196469871E-02 -7.807293580723E-02 8.252939875274E-03 -2.990240648839E-01 6.854912711128E-03 -2.810549959912E-01 -1.478306496808E-01 -3.995153321777E-01 -3.626877397655E-01 3.745114644122E-01 1.358284089040E-02 6.302226725763E-02 4.812081213479E-02 -1.867256376923E-01 2.559720737176E-01 1.757651826499E-01 -1.923500361473E-01 1.019060583876E-01 1.223189088071E-01 2.494676444467E-01 1.091029154528E+00 -9.520175420804E-02 4.497311352293E-01 2.053525347500E-03 1.892046895659E-01 -2.717188394653E-02 1.926457176733E-02 2.055919872467E-02 -5.375183054658E+02 -8.652269499346E+02 1.206998682035E+01 -1.884901941439E-02 -4.055066129179E-02 -6.094170765275E-02 4.203542508215E+02 -7.258872311698E+02 7.807781818777E+00 -8.585454946781E+01 2.193440127511E+00 2.072358186305E-01 7.197654836976E+01 -2.720685279071E-01 -5.561415545622E-02 8.993440358345E+01 2.538422970013E+03
 2.711127644593E-02 1.096063942277E-02 4.532346077902E-01 5.507937131688E-02 5.828678993929E-02 4.334884734921E+00 1.288090375672E-01 -9.516771391900E-02 -5.022959882991E-02 -7.474740501010E-02 -1.263169731799E-01 -7.921635035895E-02 -4.721557194916E-02 -1.242564232378E-01 -4.089963217020E-01 1.779600407564E-02 -6.293749871672E-02 3.195443484536E-01 -2.342983682616E-02 1.050643639453E-01 -6.751477451619E-01 -6.893237912980E-02 1.384662489418E-01 -6.733481327093E-01 -8.733331616344E-02 1.413509742478E-01 1.174688675650E+00 1.997020809732E-01 1.416343269431E-01 -1.251566291395E+00 5.955616894076E-02 -6.173346687307E-02 -9.818458314925E+00 1.074000777219E+01 1.182035548811E+01 -7.063426594574E+01 1.721534519442E-02 4.978191885584E-02 4.554685922310E+00 -3.728740197590E+00 7.578653058475E+00 -7.698816070595E+01 1.060107975315E+00 1.970556473220E-02 1.027628135757E+01 -9.935852183094E-01 1.975556901944E-01 9.633266283963E+00 -7.217362711150E+00 -3.118845311473E+01 1.515423630773E+02
 -2.776494055929E-01 1.376208211591E-02 4.452589011597E-01 -1.227458398556E+03 4.455115279442E+02 -1.142338696730E+01 -1.081570970997E+00 -6.093850619989E-02 -9.833995287150E-02 2.490668215855E-01 -5.425202362262E-01 -1.835400913783E-01 -9.641704219190E-01 -1.585694670294E-01 -2.386156255793E-01 4.079263151642E+01 4.844393029898E-02 6.746412237201E-01 -1.080695225952E-01 5.732155598831E-01 4.378674826325E-01 -2.024518473393E+01 3.532998081413E+01 -1.266612251845E-02 6.091217485071E-01 2.336118911272E+00 1.151225507336E+00 1.182516779956E+00 -3.071540250295E-01 -1.407624325435E-01 -5.546670933808E-02 -1.517039212769E-01 -3.825669502149E-02 -9.611840616669E-02 -1.397644144469E-01 5.730223093975E-01 -3.153127432533E-01 -2.818638581737E-01 1.034773366104E-02 -1.139125466149E+03 -3.896099278762E+02 4.335686560052E+00 8.765954302566E-02 1.617814985657E-01 -6.964248113511E-01 3.662611041814E+01 6.478211387347E-02 5.056730812935E-01 -1.759352466378E+01 -3.251582476487E+01 2.307443151683E-01 2.730784259523E+03
 6.110003459642E-01 2.620454688676E-01 -5.784363702075E-01 4.543646273131E+02 -7.424881959069E+02 1.288957072877E+01 3.162331774041E+00 5.133860554141E-02 -2.108189825914E-01 6.530131203340E-02 1.697786193738E+00 -4.957776874942E-03 2.346832589312E+00 1.327805728102E+00 5.964961307955E-01 6.679549256131E+01 -1.110012252514E+00 4.896276396760E-02 -2.793041978404E-01 -1.874007881164E+00 -1.058708298939E-01 -3.252797534177E+01 5.904453311854E+01 -1.290265412220E+00 -3.553177433080E+00 -6.175605089073E+00 -1.224217232018E+00 -2.767328660793E+00 2.595554626702E-01 5.122529310280E-01 1.606051400827E-02 3.045049507270E-01 8.049254034836E-02 9.860490636034E-02 3.022939668718E-01 -3.263452744896E-01 3.486820906357E-01 8.895058793253E-01 1.907168626512E-05 -3.876284805008E+02 -6.680765283185E+02 9.060542208462E+00 -1.161607982782E-01 -4.330094814017E-01 6.147801792078E-01 -6.478179686720E+01 -4.179627232187E-01 -5.283569749233E-01 3.111759298209E+01 5.776144918682E+01 -4.988506345884E-01 -1.070313125446E+01 2.818999979524E+03
 -1.816076731538E-01 1.402459800790E-01 4.811692911118E+00 -1.228455010914E+01 1.279371569295E+01 -8.301848561618E+01 -2.917495385772E-01 -3.886071176661E-02 -5.922203236115E-01 1.334739705323E-01 -7.243798088791E-02 4.279856957952E+00 -1.351291351142E-01 -3.157157399586E-01 3.499083445402E-01 -3.415118000107E-01 6.888942950985E-02 9.161136669206E+00 3.094050799808E-02 -6.506310275945E-02 1.403743700110E-01 2.253745317691E-01 -3.856750008616E-01 9.351413324638E+00 7.699762625057E-01 2.057835898467E-01 2.012913926423E-01 7.615648863813E-02 1.048876569619E-01 -1.696685830753E-01 2.361543997043E-01 1.761279805109E-01 4.646829042656E+00 -2.047739203826E-01 1.958985075112E-01 5.400480838851E+00 -1.170034843594E-01 -4.210052839814E-01 -8.887671602839E+00 4.826921631982E+00 8.571486667369E+00 -8.091151297386E+01 7.359734461596E-02 -2.282785733206E-01 -3.927086406768E-01 5.892372479361E-01 3.420704655961E-01 8.080419129061E+00 -3.647253860347E-02 -4.064781151732E-01 9.765513452016E+00 7.615325948481E+00 -5.065609527657E+01 1.873972931385E+02