#BIOSYM hessian 1
@Type: Hessian Update
@Units
 distance: 	A
 energy: 	Kcal/Mol
#header
@natom 67

#label
C1      C2      C3      C4      C5      C6      C7      C8      C9      C10     C11     C12     C13     C14     C15     C16     C17     C18     C19     C20     C21     C22     C23     H24     C25     C26     C27     C28     C29     C30     C31     C32     C33     C34     C35     C36     C37     C38     C39     C40     C41     C42     C43     C44     C45     C46     C47     C48     C49     H50     H51     H52     H53     H54     H55     H56     H57     H58     H59     H60     H61     H62     H63     H64     H65     H66     H67

#element
C  C  C  C  C  C  C  C  C  C  C  C  C  C  C  C  C  C  C  C  C  C  C  H  C  C  C  C  C  C  C  C  C  C  C  C  C  C  C  C  C  C  C  C  C  C  C  C  C  H  H  H  H  H  H  H  H  H  H  H  H  H  H  H  H  H  H 

#matrix
201
 2.782078878610E+03
 -2.032736453233E+01 2.809704532675E+03
 -2.357802361550E+01 -1.306213591164E+01 1.939420695076E+02
 3.911377019034E+01 6.676613603034E+01 -7.146205660889E-01 2.775436511595E+03
 -3.204734724686E-01 -7.262374022029E-01 6.528794231292E-02 -9.827116008494E-01 2.766082206627E+03
 7.712748761091E-02 -7.323261349428E-01 9.878453446157E+00 -2.768291443384E+01 -2.225259591975E+01 1.922563850015E+02
 -1.990605644397E+01 3.477077543016E+01 7.796234468270E-02 -4.364431129390E-01 1.098051897767E-01 2.273417084812E-01 2.808284223792E+03
 -3.354618548115E+01 5.930970195411E+01 8.540785103521E-02 -1.513030763589E-01 -4.992335828907E-02 8.716705519069E-03 -2.672934960679E+01 2.821064347941E+03
 7.626282516272E-01 -6.484312379100E-01 9.941591399712E+00 1.147941062576E-01 -7.473591150044E-02 4.805969611296E-01 -1.972428910181E+01 -1.413186430926E+01 1.957628331060E+02
 3.863586207275E+01 -6.885820241563E+01 3.101095642726E-01 -2.004218070280E+01 3.558259226638E+01 -1.142931399762E-01 4.201969623153E+01 7.159155359541E+01 -7.451701564608E-01 2.784168780794E+03
 -6.728036271959E-01 7.551083023339E-01 1.004810919354E-01 -3.325792080101E+01 5.969084877678E+01 -2.387022843339E-01 -5.969110879863E-01 -9.745196475516E-01 9.706885162578E-02 -1.894463622204E+01 2.833711907212E+03
 -9.625761926983E-02 4.923945507067E-01 9.632024982191E+00 7.552011419995E-01 -8.765252567259E-01 9.761887759389E+00 -2.187221771819E-01 -5.543275724912E-01 9.028340471123E+00 -1.967219739595E+01 -2.121016130574E+01 1.950618156127E+02
 -1.940505625542E-01 -4.851900723289E-02 1.176374635258E-01 -3.120549678581E-01 2.087742190756E-02 1.021139774761E-01 4.172822936430E+01 -7.369746885154E+01 3.923420945009E-01 -2.151374671934E+01 3.840017052923E+01 -3.898392282985E-02 2.632820891983E+03
 -1.134022790800E-01 -6.212038242450E-02 -5.628597240965E-02 -7.104610223396E-02 -1.480307045814E-02 -6.609173469856E-03 1.268579322964E-01 -4.656015576091E-01 1.447141558852E-01 -3.507048906777E+01 6.269986182515E+01 -1.214339307016E-01 -2.204936189961E+02 2.899180292810E+03
 3.562375544512E-01 -9.876786916079E-02 1.229112047113E+00 2.212224278831E-01 -6.077077210416E-02 1.365866203227E+00 1.028791257158E-02 5.734449568535E-01 1.114047847317E+01 7.276908809781E-01 -5.673309896981E-01 1.077013311575E+01 -1.590609874000E+01 -1.926463691437E+01 1.564183461958E+02
 -1.224044064787E+03 4.463595584319E+02 8.693099431745E+00 -4.620172568400E+02 -1.227198490799E+01 3.722542762209E+00 3.678304987255E-01 2.057147196429E-01 -9.321295919194E-02 1.141005421667E-01 2.645273964268E-01 -2.873503089872E-01 2.508802610914E-01 1.737427194337E-01 -3.746382937570E-01 2.810564682221E+03
 4.416774009542E+02 -7.419016720635E+02 -7.028674691301E-01 -1.316692449437E+01 -1.436376655619E+03 1.095801188923E+01 -5.017415315110E-02 7.927637567598E-03 4.207935793894E-02 1.141313459630E-02 8.575303561043E-02 3.335502433756E-02 -2.392847028007E-02 2.634882870057E-02 9.516644510564E-02 1.725718510510E+00 2.778447266073E+03
 8.872572697415E+00 -2.184440786492E-01 -8.336700979620E+01 4.370525212307E+00 1.078406172160E+01 -8.096870653524E+01 -1.555521052635E-01 4.948402543979E-02 4.660761402097E+00 3.053326071872E-02 -5.855197390966E-02 -9.168019198549E+00 2.454540541756E-02 5.876768601036E-02 -5.614948298989E-02 -2.877972655012E+01 -1.913249899155E+01 1.916175405846E+02
 -1.199211238468E+03 -4.124989863726E+02 1.179134474726E+01 7.809900201453E-01 -1.527266188498E-01 -2.600734333774E-01 -1.251940608256E+03 4.459151062976E+02 6.457507547107E+00 -4.855546240937E+02 -1.604115365995E+01 3.260350887946E+00 1.041445655173E-01 5.369337702570E-02 -4.026024423752E-01 -2.013411935572E+01 -3.273309261110E+01 5.266636747228E-01 2.816720278525E+03
 -4.125858677829E+02 -6.994407875782E+02 6.868916009596E+00 4.726306627518E-01 -1.186435028577E-01 -4.305401965031E-02 4.476519268613E+02 -7.471933425851E+02 3.396040659572E-01 -1.760400818931E+01 -1.515303138707E+03 1.134317951864E+01 6.883977533875E-02 1.945354482623E-01 -1.558394353128E-01 3.435260817770E+01 5.830411200947E+01 -7.163505904139E-01 -1.994770674262E+01 2.844119413251E+03
 1.183908678159E+01 7.501067709128E+00 -8.201237351147E+01 -3.205121892691E-01 -9.986151027591E-02 -9.339029881618E+00 6.291092719200E+00 6.176113140106E-01 -8.539771772165E+01 3.311747962176E+00 1.090183925864E+01 -8.521072533814E+01 3.595974571395E-02 -5.315976730448E-02 -1.022927905955E+01 2.608608687002E-01 -1.388480262626E-01 8.885147186447E+00 -2.117132420623E+01 -1.875142450734E+01 1.961228763120E+02
 4.023250270585E-01 2.018744550512E-01 -1.099264604108E-01 -1.236520985366E+03 -4.256860515336E+02 1.558794985906E+01 1.256041337548E-01 1.786398564352E-02 -5.956240795290E-02 -1.220124580671E+03 4.426513982959E+02 5.279640044502E+00 1.469068378824E-01 6.029604958048E-02 -1.261960312218E-01 3.683867500137E+01 -4.882533972652E-01 -3.868028589453E-01 4.150022217008E+01 -6.555688120107E-01 -1.149622633734E-01 2.817007981297E+03
 3.604031171831E-01 -9.782648217025E-03 -1.382846589880E-01 -4.261035619009E+02 -7.068220940021E+02 1.024594530879E+01 1.483680621383E-02 -4.383545913170E-02 2.592618857527E-02 4.394763234230E+02 -7.390807850195E+02 2.444263313944E+00 4.208757001829E-02 5.947699682291E-03 -1.718453523081E-02 -6.780050593850E+01 8.402660799636E-01 9.319682113111E-01 6.993669123330E+01 -7.153995827269E-01 -2.801119613776E-01 6.186112715174E+00 2.799216832025E+03
 -5.289994587984E-01 -2.171893113086E-02 -1.006088847564E+01 1.546465111326E+01 1.033858753442E+01 -8.364189711290E+01 -1.896139902439E-01 -4.882022296206E-02 4.435981262054E+00 5.188781669947E+00 2.665935213925E+00 -8.352408237510E+01 -1.289234713864E-01 3.638877963512E-02 3.959010858713E+00 5.275286343962E-01 1.074442162624E-01 8.926165555796E+00 -5.255325390479E-01 1.524273732956E-01 9.487783227619E+00 -2.370975014406E+01 -2.881642897948E+01 1.955433196082E+02
 5.349961155894E-02 2.281182764813E-02 -1.280847607174E-01 1.062541587567E-01 7.787950210026E-03 -9.065574518207E-02 -1.202482824205E+03 -4.076433819838E+02 1.041797296575E+01 1.620694105710E-02 1.135609166830E-02 -8.472282219194E-02 -5.216991788472E+02 3.981702880754E+00 3.251035952211E+00 -6.874758038373E-02 2.308012443006E-02 3.881976480716E-02 -1.980389766461E+01 -3.363653164124E+01 3.940188079832E-01 -6.819171997693E-02 3.086207725199E-03 1.607633609442E-01 2.778368013869E+03
 2.351552881211E-01 4.034334879749E-02 -2.982207290576E-02 2.993165192088E-01 -7.403547585510E-03 -4.384873113180E-02 -4.158282114497E+02 -7.025544234415E+02 6.647035704376E+00 1.902043889865E-02 3.480000077150E-02 -1.490860455714E-01 5.708927773033E+00 -1.634722925080E+03 1.152876823877E+01 -3.007993532064E-01 1.119276293365E-02 -6.811281672380E-02 3.473038481748E+01 5.923767521898E+01 -6.738995910306E-01 -1.559170811906E-01 -6.018092841530E-02 1.045529258992E-01 -2.845182062773E+01 2.959668874141E+03
 -1.553230847365E-01 8.274272282032E-02 3.718350309526E+00 -6.324764851955E-02 1.707147133859E-01 -1.303488309255E+00 1.057387453483E+01 6.818946958036E+00 -8.368124922775E+01 -3.293847121596E-01 -8.554093065144E-02 -1.040269270873E+01 2.989710564641E+00 1.115094336166E+01 -7.892209638318E+01 1.915912179736E-01 -4.994199463364E-02 3.807065579480E-02 2.161500133985E-01 1.922841144897E-02 1.048835494205E+01 2.246271345794E-02 4.170186890811E-02 9.713847900546E-01 -1.876383874264E+01 -1.849503355624E+01 1.845912329725E+02
 2.303008676867E-01 1.155092727577E-02 -3.641059921875E-02 2.910232601592E-01 3.587329495270E-02 -6.827381664006E-02 4.105356622502E-02 1.150951405796E-01 -1.855375635197E-01 -1.195862606149E+03 -4.137546626240E+02 1.160060496626E+01 -1.330345767261E+03 4.956568710743E+02 4.995027681101E+00 -2.636742200493E-01 3.108316017659E-02 -6.175108218777E-02 3.836005094497E+01 -6.200161241029E-01 -3.042078302591E-01 -1.944965427779E+01 -3.264833380470E+01 6.347109626286E-01 4.963017964477E+01 9.743975868903E-02 -1.176217028438E-02 2.877156025896E+03
 -1.981864178178E-01 -1.788344566103E-02 1.322841863587E-01 -4.243938941184E-01 4.955822411402E-02 8.498302688669E-02 -2.698202688092E-02 5.431769652925E-02 -8.731379143730E-02 -4.055846518480E+02 -6.997950714611E+02 8.219783265439E+00 4.940525642806E+02 -8.248879060379E+02 2.540404783850E+00 2.376009680472E-01 -4.984938617075E-02 -4.780349084134E-02 -6.863544762763E+01 9.046597849477E-01 6.738543476708E-01 3.454235016640E+01 5.798755101004E+01 -8.018222188933E-01 8.106450221610E+01 4.164294743239E-01 -5.062142050075E-01 -9.666082416121E+01 2.851818509543E+03
 -4.712925232193E-01 1.334965260654E-01 2.220238337265E+00 -1.639502341648E-01 6.233597694981E-02 2.329593761474E+00 -2.965574940517E-01 -1.477451382692E-01 -1.099391627625E+01 1.159225131699E+01 8.318797985612E+00 -8.314323914161E+01 4.808199020438E+00 2.617435401989E+00 -8.041512759927E+01 3.999374984696E-01 -1.080894688451E-02 1.491045568009E-01 5.616414629513E-01 2.214180378578E-01 1.067477236174E+01 1.249001922784E-01 -1.501264028749E-01 9.920236200232E+00 -7.398344827835E-01 2.151848286194E-01 1.157603705885E+01 -1.869892573261E+01 -2.335630162660E+01 1.878982183545E+02
 -3.173882170941E+00 -2.795920374023E-01 6.890257784860E-01 -5.493475958396E+00 1.112600346548E+00 8.181778487252E-01 -1.635833852959E+00 4.656812138411E-01 5.665179584173E-01 -3.158463251500E-01 -9.958008999971E-02 6.435586042306E-01 -5.821442797452E-01 5.021584273656E-01 1.139597470504E+00 3.373074100099E+00 -9.021471993894E-01 -3.358241339152E-01 2.288021697681E+00 1.116692569989E-01 -4.304207866886E-01 2.277047866997E+00 1.514919333606E+00 -1.224881059787E+00 3.847767083917E-01 2.582468673869E-01 -7.235402288071E-01 5.219172290665E-01 -1.396599206794E+00 -1.298920443971E+00 2.714937329993E+03
 5.888553346728E-01 3.608757576496E-01 9.975523115935E-01 8.512019031664E-01 2.695176821496E-01 1.144098015738E+00 2.197014356174E-01 5.615661302794E-02 6.775044616466E-01 2.110003741811E-01 5.624063506720E-02 3.865264910970E-01 3.033047976564E-01 4.180880325291E-01 1.106115584025E+00 -6.598298076769E-01 -2.302265630333E-01 -9.227535509674E-02 -5.493380448211E-01 -4.445739673032E-01 -3.805879600727E-01 -3.040927248235E-01 -9.069477109837E-02 -1.160014763938E+00 -6.188199748510E-02 -1.677009891617E-01 -5.174872868641E-01 -2.279473243031E-01 2.077845955985E-01 -2.069383146077E+00 8.335356416636E+01 2.728837183332E+03
 1.570353530183E-01 6.764909061346E-02 -4.693167397658E-02 1.877925763393E-01 -1.709092770747E-01 8.498686882230E-01 6.124821024254E-02 2.267865601332E-01 -7.030422955436E-02 5.815178678493E-02 2.530572068818E-01 5.031815710888E-01 2.249751276743E-01 2.665444448838E-01 -8.337436186672E-04 -2.767200044643E-01 -1.992468589437E-01 4.553980004386E+00 -1.463527713266E-01 -3.762081986888E-01 -7.908778420958E-02 2.439869182282E-01 -1.568726686939E-01 -6.944333482363E-01 6.400000933595E-02 -3.062204688351E-01 -2.288166297492E+00 -1.497401782739E-01 1.114245903409E-01 1.559473258753E+00 -6.299749025993E+01 4.027726761251E+00 1.974287557496E+02
 -3.175082517572E+00 -8.347328002177E-01 1.486950123524E+00 -5.218841952674E+00 1.361178554215E+00 1.768364972210E+00 -1.412424850534E+00 -3.645695845262E-01 9.142425715268E-01 -6.325083072020E-01 -2.555589752977E-01 8.594211203432E-01 -8.303375398766E-01 -5.521020781634E-02 2.276528118508E+00 4.185950565786E+00 -4.364589363650E-01 -6.733745991232E-01 2.437776450492E+00 7.820205153855E-01 -6.808127302058E-01 2.136169541726E+00 9.250812083754E-01 -2.131662112837E+00 4.765353993997E-01 8.296515605440E-01 -1.580490239837E+00 8.966264055294E-01 -1.091817449256E+00 -2.922715969665E+00 1.829512754703E+01 6.370622927001E+01 -8.638347069995E-01 2.811490326640E+03
 -5.241451988296E+00 -1.188567687455E+00 8.066981134528E-01 -8.810904554593E+00 2.091297184730E+00 8.296767584448E-01 -2.214671044193E+00 -3.858457727669E-01 5.838758564820E-01 -9.451058223970E-01 -5.514479014780E-01 6.844127526594E-01 -1.476856472443E+00 -3.211778618616E-01 1.566677636829E+00 6.673304577229E+00 -8.234133116442E-01 -5.675616403855E-01 3.946123943663E+00 1.445027638090E+00 -4.646796240114E-01 3.355026978569E+00 1.801380703918E+00 -1.395243373934E+00 5.457269830730E-01 1.440088879073E+00 -1.057975417497E+00 1.467638323597E+00 -1.932225824709E+00 -1.616818775107E+00 -3.156512183057E+01 6.767133019535E-01 3.452526025981E+00 2.830951361262E+02 2.726684473975E+03
 -2.812454773450E-01 -1.192139411606E-01 -1.618017323368E+00 -1.181160532032E-01 -5.348825447484E-02 -1.362701097176E+00 -2.613444376819E-02 -1.232311116432E-01 -1.058051896784E+00 3.316696619168E-02 -2.349124070931E-01 -6.392879551372E-02 -4.920980233792E-02 -8.432401093101E-02 -1.533251420668E+00 4.811418270885E-01 4.602955520397E-01 2.010342123474E-01 8.608137331169E-02 2.934774124479E-01 5.455012009407E-01 -2.029480435696E-01 -8.497900234971E-02 1.350353968474E+00 -8.066169234145E-02 -1.779633515856E-03 -3.421946250847E-01 -1.737925150951E-02 6.039270136852E-02 3.739635469943E+00 3.000881458896E+00 -6.139293473008E+00 1.621068725213E+01 -7.347260703384E+01 -3.395228722162E+01 1.579375570025E+02
 -2.128503496140E+01 -3.423754062658E+01 9.191504609293E-01 3.608171777709E+01 -4.582611901486E-01 1.068953904558E-02 -4.074016067885E-01 -1.885447154189E-01 2.209943032816E-01 -2.036602634461E-01 -1.403808475376E-01 1.432515142323E-01 -3.108389621067E-01 -1.825690412450E-01 4.306785405702E-01 -1.241539188060E+03 -4.301634995890E+02 1.609092937718E+01 7.959055333151E-01 4.204862977883E-01 1.457220862774E-02 5.791807330238E-01 2.251991430945E-01 -2.932246823618E-01 9.199719233186E-02 3.501048008568E-01 -2.323863913251E-01 3.056180164192E-01 -3.546529603545E-01 -5.679442517560E-01 -2.505201415565E+01 3.591902645648E+01 2.283158615749E-01 -4.793112547420E+00 -8.223254766415E+00 -4.939788939818E-01 2.748295110145E+03
 3.588276441120E+01 6.034223377462E+01 -7.003478665798E-01 -6.776862645350E+01 8.375461822623E-01 6.365660362585E-01 1.707798608239E-02 -1.356665287068E-02 1.016469305922E-02 -1.648545430979E-02 2.388306279300E-02 -5.133535054906E-02 1.610698652634E-02 6.255084639549E-03 -1.508534698489E-01 -4.361580658449E+02 -7.157856769776E+02 8.555010055422E+00 -5.470817923517E-02 -1.593136288963E-03 8.841060589322E-02 -9.352113817311E-02 -5.461714363398E-02 9.654612542236E-02 4.729797293011E-03 1.019221454864E-02 2.163759188886E-01 -1.725711277141E-02 2.314535779399E-02 6.918251395691E-02 -3.351848240252E+01 5.814558358071E+01 1.293473990376E-01 -2.572565166524E-01 5.783530639009E-01 -6.606788623187E-01 2.708574273875E+01 2.799477398632E+03
 -1.717585037980E-01 -3.437070997253E-02 9.857255462415E+00 -1.203606048117E-02 1.684137829236E-02 8.775443974984E+00 -8.896607700452E-02 3.676449146788E-02 -1.015523944641E-01 -2.816797006249E-02 -1.752294524983E-02 2.655963603267E-02 3.702811417813E-02 5.325229599995E-02 1.409665470854E-02 1.653736312000E+01 8.521510372366E+00 -8.224916966875E+01 8.878903042334E-02 1.138487875782E-02 4.590775024529E+00 8.991156319054E-02 5.742501646020E-03 4.587001577907E+00 7.563651521519E-03 -1.135395237159E-01 -1.798433184275E-01 -7.574128718076E-02 -1.692244754271E-02 1.432537139390E-01 1.081173448358E+00 -1.078532605266E+00 9.323107948743E+00 5.852321904212E-02 1.005479367051E-01 4.967731842412E-01 -3.570309817967E+01 -9.356135049643E+00 1.899587833696E+02
 -3.086294379443E+00 -8.139607977801E-01 3.316760235189E-01 -2.502579675436E+01 -3.061038409978E+01 1.083508186207E+00 -1.401287256313E+00 -1.185698270058E-01 4.801611184774E-01 -6.594058420370E-01 -1.766946052538E-01 3.854810410753E-01 -7.724737514812E-01 5.288898564548E-02 7.043931297685E-01 3.955160371185E+00 3.340064994511E-01 -5.666073172953E-01 2.358023170344E+00 7.196803222784E-01 -4.372608393182E-01 1.935206569062E+00 1.120695264277E+00 -7.976554785592E-01 3.335393424602E-01 7.548504097672E-01 -2.099990301104E-01 7.343083990507E-01 -1.245641678207E+00 -8.504269181512E-01 1.770047333915E+01 -7.122219559197E+01 1.902851413119E+00 -4.107876235149E+01 1.248901641752E+01 -5.937333271300E-01 3.439386964072E+01 6.372704792367E+01 -1.018538371751E+00 2.761480834437E+03
 2.380076914878E-01 -1.729408727826E-01 -2.751434474845E-01 3.419354529371E+01 5.699587242469E+01 -1.357688908385E+00 1.379512703227E-01 2.686125314669E-02 -2.110127531590E-01 -5.218449453568E-02 4.707612050329E-02 -5.118528343406E-02 -1.347811403609E-01 -2.183284082600E-02 -2.205712241054E-01 1.309611382017E-01 -3.051434957144E-01 -1.715904044415E-01 3.098155496354E-02 5.101992703388E-02 1.620776775471E-01 4.186872489272E-01 3.279559779035E-02 3.984808729524E-01 1.511138759677E-03 4.097568677867E-02 -1.664752698495E-01 1.933492876960E-01 -6.392371212236E-02 4.987163047177E-01 -2.589621119128E+00 1.418216145143E+00 -1.138300969008E+00 -4.066495312202E+01 7.392443549084E+01 2.287198618277E+00 -9.734538650500E-01 -3.086521650283E-01 5.736327001703E-01 1.613538837349E+01 2.706906037583E+03
 -2.753620448323E-01 -1.140790890994E-02 -1.527142163334E+00 -3.832341052086E-01 -2.758287077992E-01 6.418441988530E+00 -2.615301104586E-01 -1.524593849249E-01 -8.015192330771E-01 -1.926503459036E-01 -1.690114215610E-01 -2.208614440473E-01 -2.312067583409E-01 -7.017686203332E-02 -1.595672365764E+00 9.572399334343E-02 1.221778914410E-01 -8.613573412371E+00 2.796826807026E-01 2.870116376575E-01 3.532423403730E-01 3.220566612530E-01 9.994255677764E-02 5.739084228575E+00 2.024620310909E-01 1.237384725446E-01 1.063853655607E+00 2.846417545303E-01 7.807848751239E-03 2.992988833932E+00 -1.232457330382E+00 -5.138351759530E-01 8.564449704030E+00 -1.089081893926E+00 -2.557808963324E+00 1.438754586419E+01 -8.615856035733E-01 -8.364715807764E-01 8.946695706968E+00 -5.051887897779E+01 -1.996214917650E+01 1.868207303233E+02
 1.581592321987E+01 2.987347835575E+00 -5.342940943542E+00 2.437126592630E+01 -5.532322362723E+00 -5.667858725072E+00 6.982957780824E+00 1.016879731453E+00 -3.341374986415E+00 2.564777639441E+00 1.370137048662E+00 -2.932608755660E+00 4.057162962083E+00 6.078403167118E-01 -8.161738774166E+00 -1.937080156492E+01 3.929364180396E+00 2.398046042262E+00 -1.186022061641E+01 -3.503569054159E+00 2.383912263569E+00 -9.793250612549E+00 -4.940271922804E+00 7.381695980374E+00 -2.038638806490E+00 -3.778939501531E+00 4.640970018662E+00 -4.065272074618E+00 5.626128845327E+00 1.084928246862E+01 -1.018224995835E+03 3.826950433639E+02 2.633423299254E+01 -4.203127364882E+02 1.137796146701E+02 9.993752523592E+00 2.429894919093E+01 -2.113964057463E+00 -2.065865352503E-01 8.318460755502E+01 4.522411305675E+00 6.871792255813E+00 2.608225896319E+03
 9.155627726900E+00 2.195001689263E+00 -2.327925887755E+00 1.613014117988E+01 -4.375791800486E+00 -2.628989004736E+00 3.878905215379E+00 1.053726936959E+00 -1.669212233186E+00 2.180393570251E+00 8.579261258727E-01 -1.286146332279E+00 2.646857021436E+00 8.370151366102E-01 -3.472555392693E+00 -1.225216343512E+01 1.618510512601E+00 1.093815723128E+00 -6.930197666068E+00 -2.684675287775E+00 1.226188019334E+00 -6.179207314214E+00 -2.914673098420E+00 3.612531327181E+00 -1.245810176805E+00 -3.002876297152E+00 2.080037818062E+00 -2.863123888134E+00 3.058635421958E+00 4.490627273695E+00 4.401212856902E+02 -7.048268371460E+02 -1.378149671196E+01 3.092010129704E+01 -1.349910722327E+03 1.694588557340E+01 1.425217229563E+01 -4.747510888697E-01 4.118341427916E-01 5.146944113861E+01 1.339879800361E+00 2.919781212975E+00 -1.034522482088E+01 2.603022880671E+03
 -1.617066629481E+00 -6.237502939893E-01 -2.448963544855E+00 -2.594831469176E+00 7.106671074082E-02 -3.318001690831E+00 -8.820299404850E-01 5.844013483386E-02 -9.637776871752E-01 -3.014491306007E-01 -3.167311471297E-01 -5.838342560177E-01 -6.137345773460E-01 5.528336771618E-02 -2.739903168400E+00 2.108849439880E+00 6.100815325545E-01 1.455692497652E-01 1.415644558259E+00 6.268240455940E-01 4.219812844385E-01 9.680008632733E-01 5.578521345376E-01 2.488418473896E+00 1.575389600929E-01 2.784665200782E-01 2.998443414424E+00 4.753720669586E-01 -8.454178146768E-01 4.148818753138E+00 2.055621507600E+01 -1.842173058514E+01 -9.791345778360E+01 4.096204872209E+00 4.288388544840E+00 -8.175051301895E+01 -2.188423732624E+00 -1.122935638417E+00 4.555389870929E+00 -9.737958182588E+00 -4.989916088578E-01 -6.645786826853E+00 -4.658358817778E+01 -2.304451536631E+01 3.062772806398E+02
 1.952756075784E+00 5.366203628352E-01 4.992602450131E-02 3.798741636903E+00 -4.586994182566E-01 -1.028500636752E-01 8.060829156030E-01 -5.462540553820E-02 -7.074336193941E-02 3.655338072492E-01 4.598872360717E-02 -5.986311438725E-03 4.598185837123E-01 7.769734186041E-02 -1.957188806213E-01 -2.152130467863E+01 3.391215186385E+01 5.152796948803E-01 -1.405207701965E+00 -4.483847675527E-01 4.239773305758E-02 -1.062655159537E+00 -7.717219386581E-01 4.074640084104E-02 -9.927461568072E-02 -3.800591344742E-01 -4.798979863056E-02 -3.542383605029E-01 8.448313345377E-01 2.653296422976E-01 -1.277044592209E+03 -4.642064775068E+02 2.840675346461E+01 1.074208064929E+01 1.816540935272E+01 -3.475545343006E-02 -1.145859468008E+03 4.175817977675E+02 1.499973768558E+01 -4.504645614877E+02 -1.151110462906E+01 6.778959024884E+00 -6.856127330743E+01 -6.394307892192E+01 8.191562153463E+00 2.778584526781E+03
 2.270453692285E-01 8.841374840893E-02 2.633992336539E-01 1.765484579756E+00 -5.144354573610E-01 1.129500489563E-01 1.783536223405E-01 -1.174262849109E-01 -2.994395113444E-03 2.163825179075E-01 -1.488569997414E-01 4.960337610108E-02 1.392367114831E-01 -1.338198941461E-01 4.323772215294E-01 -3.276271987200E+01 5.695688379566E+01 2.904764772043E-01 -3.430090981544E-01 3.474206884130E-03 -5.420884510101E-02 -5.331451454760E-01 -1.507247673797E-01 -1.824050920621E-01 -9.863216344596E-02 -1.350376770048E-01 -2.852989499798E-01 -1.795760704681E-01 2.594975080672E-01 -5.236965045759E-01 -4.554390780370E+02 -7.254824385080E+02 1.195370304674E+01 5.141269495092E+00 4.759440505585E+00 -2.215823528216E-01 4.139831364967E+02 -7.084953771502E+02 -3.396014983869E+00 1.057496528085E-01 -1.432035444214E+03 1.018621315032E+01 1.899620539453E+01 4.936427660392E+01 3.521723293697E+00 5.091232871524E+01 2.752949744106E+03
 1.214715437246E-01 2.421282384451E-02 5.661156158628E+00 8.808013806597E-02 4.395550563882E-02 -7.376199369169E+00 1.742315332440E-01 2.916661010964E-02 6.260505864742E-01 8.666449092035E-02 1.570346495266E-01 2.175893810396E-01 1.118709584024E-01 3.296533668338E-02 1.275452639853E+00 4.348908589461E-01 -8.638406926948E-01 8.250757187879E+00 -1.056605379403E-01 -1.927698274110E-01 -2.907741995485E-01 -1.199355540455E-01 -1.050981012962E-01 -1.123977389994E+00 -1.030659859432E-01 -3.125058382464E-02 -9.656166649800E-01 -1.186170685940E-01 -1.681244206043E-02 -2.278219670379E+00 2.926156554951E+01 1.378917826691E+01 -8.125345359319E+01 1.479426454411E+00 -2.050068008359E-01 -1.229178388557E+01 1.601588650663E+01 -2.898889027579E+00 -7.958115994044E+01 7.839743718493E+00 1.076023865287E+01 -8.204745030446E+01 -2.394837351456E+00 1.707050335617E-01 5.883830440700E+00 -5.029835462979E+01 -1.986218639384E+01 1.898764118611E+02
 3.937542674339E+00 8.673286951526E-01 -1.284767055511E+00 6.971795026584E+00 -1.638279094578E+00 -1.324319177418E+00 1.750524972770E+00 3.723064554895E-01 -1.022155005308E+00 7.918503070509E-01 4.497381174975E-01 -8.071609819123E-01 1.082567470744E+00 1.034965323872E-01 -2.004690561822E+00 -5.141012117592E+00 6.827917743888E-01 6.801923013822E-01 -3.003532603881E+00 -1.016960597953E+00 7.638073080130E-01 -2.764653333271E+00 -1.474223619172E+00 2.091878502337E+00 -5.176551930851E-01 -1.211256744983E+00 1.073008955473E+00 -1.176680557636E+00 1.407742441091E+00 2.749746215750E+00 2.772079071970E+01 3.576218391064E+00 -3.208617212429E+00 -1.537339042741E+03 -5.255070623672E+02 4.566216016866E+01 5.876850494317E+00 -8.878355181889E-02 2.333189083498E-01 -1.208482424622E+03 4.154116806245E+02 2.247642409172E+01 -5.839958792221E+01 -6.392871936008E+01 1.101107081222E+01 2.448716903045E+01 -5.182306618994E+00 -2.056398555314E+00 3.056761056060E+03
 8.276868563033E-01 3.224975341135E-01 -6.010101594584E-01 1.569275140607E+00 -1.605073842310E-01 -7.766721216198E-01 3.214156515358E-01 1.103340484329E-01 -2.931747294179E-01 1.934610972101E-01 4.686617636005E-02 -2.786559748767E-01 2.598323699420E-01 9.184976768410E-02 -8.418341306492E-01 -1.051259138959E+00 1.220544891769E-01 1.874909132673E-01 -6.924658130005E-01 -2.560645424860E-01 2.133305782419E-01 -7.571834612713E-01 -2.868409888847E-01 7.827744490808E-01 -1.228369650466E-01 -2.469186691182E-01 9.268510545922E-01 -3.004118836292E-01 3.116521276140E-01 9.617920891659E-01 6.973686779961E+00 -3.539913572688E+00 3.624285395771E-01 -5.752032359072E+02 -8.782067945401E+02 2.266968931619E+01 1.219283342997E+00 -4.574336897546E-01 2.915748869434E-02 4.072048886032E+02 -7.211426435255E+02 -9.297546963224E-01 -1.087470612322E+02 -8.119096514060E+00 5.437094269114E+00 6.563309466167E+01 -1.863268694310E-01 -2.310874251215E+00 1.371817551026E+02 2.550686614619E+03
 4.648243610410E-02 2.185467018462E-02 -1.056049070487E+00 -1.430918736928E-01 -7.485047156929E-02 3.940287666489E+00 1.493407999852E-01 1.659180143118E-02 -2.762662312059E-01 9.692764610640E-04 -1.850270525765E-02 8.576475409153E-02 3.317397808469E-02 3.713988991958E-02 -1.284616631567E+00 4.132975734271E-02 1.922075850900E-02 1.534520609221E-01 -1.054874688897E-01 2.885482542949E-02 3.623105924000E-02 1.619746952193E-01 3.610220600095E-02 3.297303769452E-01 -7.688811174159E-02 9.894131282325E-02 -7.006159897280E-01 4.685293231659E-02 5.713013882735E-02 2.996432023050E+00 -1.349921767122E+00 4.104100766521E-01 -6.650046949207E+00 4.296364395137E+01 2.138034250965E+01 -6.918344253512E+01 7.460976983860E-02 1.476373302337E-01 4.088246231350E+00 2.101265226800E+01 -2.621758994213E+00 -7.535566464278E+01 4.665148947981E+00 5.877867271610E-01 9.669306947926E+00 -4.634009002126E-01 -6.279833941255E-01 9.705091506754E+00 -7.066029458443E+01 -3.022715802752E+01 1.552888962944E+02
 2.024321496812E+00 6.379554741433E-01 -7.807320848902E-02 -1.191706880847E+03 4.357492136220E+02 8.936655459082E+00 9.420690533121E-01 1.992227886130E-01 -7.031630935448E-02 6.813956488148E-01 2.071584132843E-01 -2.916407517348E-02 6.916382817185E-01 1.699706193535E-01 -2.697253928720E-01 3.725374701779E+01 -2.159638066829E-01 -2.529728528721E-01 -1.764430071788E+00 -8.178264117709E-01 1.574859594106E-01 -2.158654670485E+01 3.458580933085E+01 2.505092306408E-01 -2.550541342770E-01 -6.340029792455E-01 1.086810351244E-01 -6.827293202008E-01 9.499846214198E-01 1.237147548025E-01 1.367721271540E+01 -1.952056931840E+00 -5.880872827544E-01 1.103686128223E+01 1.981458008751E+01 -2.449429331763E-01 3.855467700653E+00 -6.087498325042E-02 7.248651782707E-02 -1.188976997085E+03 -4.183916526297E+02 2.302414927351E+01 -5.596174011467E+01 -3.360422106580E+01 6.185211115379E+00 2.798895127638E+01 -2.979825774522E+00 -5.278862865491E-01 -3.310308180458E+01 -3.629104085675E+01 9.692212483825E-01 2.753541824796E+03
 6.569356453272E-01 1.853775406537E-02 1.891897156776E-01 4.443361141548E+02 -7.380061930519E+02 2.089818061387E+00 2.563733413159E-01 7.408461919757E-02 -2.914637054460E-02 1.479781326265E-01 2.679625178136E-01 -4.442900374070E-02 3.860873194407E-01 1.343340767476E-01 -1.163019571617E-02 6.497361291306E+01 4.374678933821E-01 -4.932092142440E-01 -5.809384069993E-01 -2.938127626621E-01 4.420217641588E-02 -3.385699852782E+01 5.810095968618E+01 1.824029476811E-02 -9.972194223879E-02 -4.263552189118E-01 9.988852922697E-02 -5.320088607662E-01 3.087266978532E-01 -1.395758042645E-01 6.839369657781E+00 -8.105855771198E-01 -4.191764404859E-01 5.445976519264E+00 9.609260982500E+00 -5.446778780939E-01 2.628472399345E+00 -6.090457232514E-01 -3.202486876397E-01 -4.131022783139E+02 -6.874507138169E+02 1.353171460976E+01 -2.754600552583E+01 -1.522543033888E+01 2.547955585613E+00 -6.955398264460E+01 -8.443547146339E-01 1.327665192231E+00 2.491825749100E+01 5.674500239545E+01 -1.042998987875E+00 2.896007667853E+01 2.797219302856E+03
 -2.014499745129E-01 8.609667263953E-02 4.050002227259E+00 8.783118208046E+00 2.438346718502E+00 -8.263507357295E+01 -1.326664878115E-01 -6.994187352899E-02 -5.662331629318E-02 -6.099820416051E-02 7.934852891983E-02 4.443842120948E+00 -1.154660112176E-01 -3.485314437287E-02 -6.904797961095E-01 -4.857734732362E-01 -1.387450279281E-01 9.083816699384E+00 1.854758011377E-01 8.911810382029E-02 -1.081555511001E-02 5.838280491860E-01 -8.833771057973E-01 9.637779233888E+00 6.862560118879E-02 1.660570959752E-01 1.043257205263E+00 1.293689487620E-01 -8.341238588739E-02 7.690938314462E-01 -6.627270213525E-01 -3.206555366314E-01 3.581118035663E+00 -1.566830208158E+00 -1.077820779857E+00 5.278786731939E+00 -6.435482799890E-01 -2.884974064011E-02 -9.008768572961E+00 2.296367411292E+01 1.292543311430E+01 -8.123092164022E+01 5.100444417090E+00 1.577932435361E+00 1.606542989599E+00 -1.125617880738E-02 2.957157715013E-02 7.316162670970E+00 1.452280218798E+00 1.061300454811E+00 1.021840816571E+01 -3.684477497453E+01 -3.741542688369E+01 1.878116148339E+02