#BIOSYM hessian 1
@Type: Hessian Update
@Units
 distance: 	A
 energy: 	Kcal/Mol
#header
@natom 67

#label
C1      C2      C3      C4      C5      C6      C7      C8      C9      C10     C11     C12     C13     C14     C15     C16     C17     C18     C19     C20     C21     C22     C23     H24     C25     C26     C27     C28     C29     C30     C31     C32     C33     C34     C35     C36     C37     C38     C39     C40     C41     C42     C43     C44     C45     C46     C47     C48     C49     H50     H51     H52     H53     H54     H55     H56     H57     H58     H59     H60     H61     H62     H63     H64     H65     H66     H67

#element
C  C  C  C  C  C  C  C  C  C  C  C  C  C  C  C  C  C  C  C  C  C  C  H  C  C  C  C  C  C  C  C  C  C  C  C  C  C  C  C  C  C  C  C  C  C  C  C  C  H  H  H  H  H  H  H  H  H  H  H  H  H  H  H  H  H  H 

#matrix
201
 2.782329181650E+03
 -2.592739305165E+01 2.818020467575E+03
 -1.702113564263E+01 -1.191087230285E+01 1.935839289911E+02
 3.981996589752E+01 6.768684178292E+01 6.627408003181E-01 2.790758245969E+03
 8.262289054232E-01 -1.351064643214E+00 -9.083054986769E-02 -2.310355767288E+01 2.766617239674E+03
 6.169619255325E-02 7.475999620885E-03 8.714475059858E+00 -8.841582697203E-01 1.545483923533E+01 1.915008148172E+02
 -2.044608591559E+01 3.464931925862E+01 6.202927333059E-01 7.217446562152E-02 8.595225881313E-01 -1.523284478229E-01 2.812042395065E+03
 -3.397103765305E+01 5.916794799273E+01 1.405950838837E+00 2.339265739725E-03 1.390392908759E-01 -4.035209643732E-02 -3.123302122629E+01 2.818229983473E+03
 6.401791481657E-01 -1.930364628982E-01 9.372633321261E+00 4.146985850492E-02 -1.049315104879E-01 -1.267689345993E-01 -4.746171460074E+01 1.466191886693E+01 1.966400831743E+02
 3.883457675913E+01 -6.833307059962E+01 -1.144869378433E+00 -1.977444216344E+01 3.538659209007E+01 2.638183439954E-01 4.181493390869E+01 7.211473841312E+01 1.704591358816E-01 2.787460479037E+03
 -7.985277557851E-01 4.141164563246E-01 9.283183843034E-02 -3.282097005922E+01 5.899772575688E+01 8.691147320363E-01 -7.235813211984E-01 -7.663426296076E-01 -1.553755690811E-01 -1.974175966672E+01 2.833383251823E+03
 -5.076238063993E-01 5.949519958288E-01 9.428326207973E+00 4.210393588564E-02 7.192256276754E-01 9.446516430722E+00 -7.301832557619E-01 -1.465963768112E+00 9.007533139021E+00 -2.643147266821E+01 1.782282151306E+01 1.953903311844E+02
 -4.539082384317E-01 1.257709305511E-01 1.206873009242E-01 -7.219190492077E-02 8.265908446150E-01 -1.195634582368E-01 4.178441542046E+01 -7.331150363915E+01 -1.599291987321E+00 -2.162128428865E+01 3.797708535887E+01 8.041796371665E-01 2.636850658844E+03
 -1.442800717135E-01 -9.000558912870E-01 -1.317438225423E-01 2.313358540032E-01 -4.427845278091E-01 1.662912157808E-01 2.225553007526E-01 -8.945415283899E-01 9.950914297792E-02 -3.534608900365E+01 6.253835402641E+01 1.465482359239E+00 -2.219050029096E+02 2.897974566784E+03
 -5.783257325997E-02 7.493131816327E-02 4.215581602757E-01 9.949544852757E-02 1.671937699137E-01 4.873773859097E-01 -8.167124019140E-01 1.234824356277E+00 1.017083215309E+01 2.917399282192E-01 2.520856260754E-01 1.075805164107E+01 -4.137761429050E+01 3.511257509497E+01 1.569581397022E+02
 -1.228760718848E+03 4.489347912013E+02 2.707187717884E+00 -4.674734183941E+02 -8.939918647082E+00 8.582734208920E-02 1.019725163789E-01 9.114561681332E-02 1.132015769063E-02 1.120952000013E-01 -2.222618661589E-03 -4.389258245465E-01 1.064938368336E-01 5.689116608579E-02 -7.680869887449E-02 2.821417134600E+03
 4.427098326517E+02 -7.390375536094E+02 -1.620076710747E+00 -7.952754003040E+00 -1.431451941545E+03 -6.085253925064E+00 -9.829081363258E-01 -6.950158648708E-02 -1.373717758529E-01 7.747152804378E-02 -4.092709635276E-01 3.564194373973E-01 -6.896172280507E-01 2.884068599836E-01 1.799261274753E-02 -1.254613455831E+00 2.778528480546E+03
 3.358110595025E+00 -4.115214642195E-01 -8.306838042480E+01 1.181678654900E-01 -6.171650350528E+00 -8.147128226794E+01 -2.952152361278E-01 6.071341823029E-03 4.584935094120E+00 3.164473793401E-01 -2.890525460352E-01 -9.225496697350E+00 1.549060396387E-01 1.207298829647E-02 1.940929085331E-03 1.180233546448E+00 8.625963550363E+00 1.921084950563E+02
 -1.190080693136E+03 -4.140063268630E+02 1.119126431039E+01 1.297991068908E-01 -1.417704975498E+00 3.777426905343E-01 -1.263837722316E+03 4.468915969819E+02 2.164770217697E+01 -4.853603975450E+02 -1.038002107476E+01 5.345385869286E+00 4.971828794422E-01 7.248080673121E-02 -3.500624669127E-01 -1.986428838327E+01 -3.204068235745E+01 2.755533258382E-01 2.819082948459E+03
 -4.131790981428E+02 -7.026881382429E+02 3.019468327313E+00 -5.381876165422E-02 -8.238766676427E-01 4.102352992102E-01 4.487977845049E+02 -7.456820401108E+02 -1.177099891064E+01 -1.303102777915E+01 -1.513033334935E+03 -8.296577324782E+00 9.479189024986E-02 1.352392738899E-01 4.893129747009E-01 3.429080285426E+01 5.829135786796E+01 -7.730659181673E-01 -2.494807172625E+01 2.843975279419E+03
 1.068462576515E+01 5.116601767185E+00 -8.153517466932E+01 -4.562184590988E-01 4.428580872688E-02 -8.954391031558E+00 2.172924284712E+01 -1.131569343110E+01 -8.606093758880E+01 4.930848455980E+00 -9.321247110467E+00 -8.535963380060E+01 6.021697230410E-02 -9.969854982646E-02 -9.877953853241E+00 8.423962984919E-02 -8.433730502615E-01 8.809116575826E+00 -3.731257057814E+01 1.664420857005E+01 1.968678706077E+02
 -3.998675162906E-02 -1.073003270198E-01 -1.693148810621E-01 -1.219772902922E+03 -4.204004730656E+02 -6.104035089088E-01 -2.911479940044E-01 -1.288872266655E-01 8.580305362735E-02 -1.225477121312E+03 4.404831074701E+02 1.265898492142E+01 -2.205142847505E-01 -2.704076719914E-01 -1.505243489292E-01 3.751288282404E+01 -9.469805206092E-01 -4.102616282236E-02 4.176588153502E+01 -2.149615739194E-01 -3.456307384865E-01 2.807147492952E+03
 -9.144393470381E-02 -2.060732879912E-01 -1.180439946094E-01 -4.232496721506E+02 -7.050820297981E+02 -4.636654700250E+00 -7.360015287367E-02 2.319301283840E-02 -1.335319353177E-01 4.391029491575E+02 -7.357642393610E+02 -9.957223696479E+00 -5.763596825709E-02 8.223406622583E-02 5.940633712332E-02 -6.674303477095E+01 6.754108172588E-01 4.190057311915E-01 7.027814046178E+01 -3.680793281175E-01 -1.723004356141E-01 -3.028445030900E-01 2.807895989833E+03
 1.532516031176E-01 -2.149380597751E-01 -9.071671697751E+00 -1.229756190506E+00 -4.412748194151E+00 -8.265297757379E+01 1.484423277932E-01 -1.890350513135E-01 4.239575603840E+00 1.273164958620E+01 -8.695152412748E+00 -8.367135728308E+01 4.188962796870E-02 -8.859181914341E-03 5.344426409529E+00 -2.391942650933E-01 1.257523964947E+00 9.245192161664E+00 -2.656423035440E-01 3.259115252210E-02 9.284177148831E+00 -1.403899102696E+01 3.013285003111E+01 1.971973970038E+02
 -2.089079365293E-01 5.140820118611E-02 -2.160310334277E-01 1.061878350185E-01 2.556585365221E-01 1.664477923574E-01 -1.194599374788E+03 -4.084370400586E+02 1.791529951195E+01 6.904931411582E-02 -2.415470836850E-01 3.017972497750E-02 -5.227551113334E+02 8.686017468150E+00 8.845927019223E+00 6.137379426275E-03 -4.812798735566E-01 -6.359801922787E-02 -1.951211671348E+01 -3.384850528812E+01 2.518452984978E-01 -1.455710827468E-01 1.640084065638E-02 -1.665144419063E-02 2.773357363748E+03
 1.158887406815E+00 4.909682809841E-01 -2.712252520875E-01 -2.177825319825E-01 -1.440643087521E+00 -3.844459680760E-01 -4.163294529818E+02 -7.047307690079E+02 2.479089728482E+00 -1.075016911047E-01 9.054760900606E-01 1.350877847705E-02 1.124845725950E+01 -1.634954992630E+03 -1.894803105449E+01 -2.960675771416E-01 1.876176830475E+00 -7.034509090975E-02 3.314955737938E+01 5.884998431251E+01 -8.247458160223E-01 6.460475930880E-01 8.000225288438E-02 9.217136741266E-01 -2.928114978712E+01 2.955413245280E+03
 4.965707623490E-01 -4.984142819129E-01 3.884636534090E+00 -6.027276927622E-02 -5.558407371899E-01 -1.050637142531E+00 1.793861756235E+01 3.183628091551E+00 -8.315516620416E+01 -2.919055540430E-01 3.865848239191E-01 -1.034913084739E+01 8.651966830615E+00 -1.963317834195E+01 -7.966696528344E+01 -1.083646057148E-01 9.493740792505E-01 2.727133181604E-01 3.386981885761E-01 3.621740409955E-01 1.018697439198E+01 1.111196351650E-01 -1.687984021382E-02 1.061673493351E+00 -5.479764279370E+01 3.393614113571E+01 1.862341345199E+02
 4.491836871049E-01 -1.078426742935E-01 2.604984658373E-01 7.286066522936E-02 -8.149912692304E-01 3.974956128632E-02 2.861401908515E-01 9.687250146345E-02 -4.185246229987E-01 -1.194412505601E+03 -4.171327493455E+02 9.358029252456E+00 -1.336321211646E+03 4.942782320690E+02 2.382549876542E+01 -8.295438105966E-02 7.647660051781E-01 -2.052197427443E-01 3.837716041779E+01 -5.674461123662E-01 -2.758057784928E-01 -1.924383847724E+01 -3.273632789989E+01 4.132001418323E-02 4.945818025460E+01 -4.649954349923E-01 -8.749390994753E-01 2.881840688660E+03
 -3.578245388665E-01 3.061460467988E-01 3.249459456488E-01 -1.404015423131E-01 9.827733521421E-01 -5.262680331251E-02 -3.201685358821E-01 6.404492198473E-02 -6.738223661176E-02 -4.090459122728E+02 -7.048721287005E+02 -7.951150155906E-01 4.920344894332E+02 -8.198434584381E+02 -1.573111600733E+01 1.056728286923E-01 -8.065851747262E-01 7.270403386052E-02 -6.812454389118E+01 7.763223491095E-01 8.990594566623E-01 3.429379809115E+01 5.795996008527E+01 -4.407837162361E-01 8.136851071731E+01 1.099194445810E+00 -1.114420871499E+00 -9.479141888930E+01 2.844694694308E+03
 -2.588374457293E-01 2.040245416884E-01 5.074033979741E+00 2.427396854748E-01 4.890121029295E-01 5.670654683209E+00 -2.243891148012E-03 1.255241524824E-01 -1.041163752573E+01 9.387570903166E+00 -2.939929390315E-01 -8.278177091085E+01 2.296414241158E+01 -1.557285337447E+01 -7.699413006774E+01 1.040565997353E-02 -9.407709174221E-01 -3.353261791865E-01 -3.744827041969E-01 -1.115291497722E-01 1.067195074230E+01 5.065585535151E-01 3.335929989230E-01 6.930123470397E+00 5.421466915206E-01 -3.360805626859E-01 8.038106554581E+00 -3.718820191157E+01 3.114709952444E+01 1.868606675145E+02
 3.018538997017E-01 3.109207895196E-01 2.972801088812E-02 -9.546334097806E-02 -2.441374298273E-01 1.002265800209E-01 2.888749603057E-01 1.125144405421E-01 -3.600187096525E-02 -6.651781931406E-02 3.460159331915E-01 -9.872112899747E-03 1.736851112181E-01 3.467886370871E-01 4.391157094957E-02 -1.047491452030E-01 4.972364509280E-01 2.747293858646E-01 -4.342833169001E-01 -1.788100204020E-01 5.305400427645E-02 2.131720794836E-01 1.853913309761E-02 2.274802580281E-01 1.267161868198E-01 -6.332528165523E-01 3.786240351294E-02 -1.900310836835E-01 8.125805734257E-02 -2.910989319803E-02 2.809371760414E+03
 -4.143203716470E-01 -2.306719993028E-01 1.886207085439E-01 1.148269066994E-01 4.605424517039E-01 -1.612854281619E-01 -3.516345619916E-01 -8.260652008269E-02 -7.352022881979E-03 3.475407635626E-02 -1.920784955339E-01 -3.382191721352E-02 -2.386837339501E-01 -1.676933152441E-01 -2.900658402764E-02 6.941367238616E-03 -3.064241914592E-01 8.380604391702E-03 4.686591422845E-01 2.300306980860E-01 7.680923654463E-02 -2.829589124789E-01 1.306979009565E-02 2.514580760585E-01 -1.597267162386E-01 8.303383659461E-01 2.956127650312E-01 2.714134036033E-01 -1.982446547465E-01 -3.452478789656E-01 1.466721831920E+00 2.799720815770E+03
 -7.405800238353E-02 1.192727277723E-01 -2.745217563991E-01 -3.815699868182E-02 -7.649260844419E-02 -2.807857775206E-01 4.970030325675E-02 6.308350998424E-02 4.224899732479E-01 8.725779637201E-03 1.003003356559E-02 -2.081169088305E-01 1.032212688340E-01 -2.562728275435E-02 -8.203856357626E-01 -7.115808058361E-02 -9.996780991317E-02 4.521591465416E+00 -4.032020903386E-02 -7.063160113862E-02 4.551884882344E-02 8.092633368594E-02 -7.773196897906E-02 -3.885590362546E-01 6.514868849319E-02 -4.433710491790E-01 8.590912856104E-01 -2.175633251009E-01 3.884890122602E-02 -8.945154559374E-01 5.551974791902E+01 1.004237221353E+01 1.954944651481E+02
 3.813841355237E-02 -2.447252145815E-01 -7.332709358334E-02 3.857846251314E-02 -3.372062654019E-01 1.313870130276E-01 2.411974696652E-02 -3.788204524654E-02 -4.202854493411E-02 7.661676813554E-02 -1.513312408418E-01 4.766796791779E-02 8.036246791039E-02 -2.176258963769E-01 1.092469373117E-01 7.716799025568E-02 2.955105269553E-02 -2.236676942089E-01 -5.394354378576E-02 -5.687840320967E-02 -2.099384814103E-02 -3.972748380319E-02 3.000729979598E-02 -1.499130002836E-01 4.161560261689E-04 -8.259884330296E-03 -2.715958664539E-01 -7.509579583538E-02 1.295218615839E-01 2.528039053004E-01 4.187843960129E+01 7.152149798794E+01 1.452176417602E+00 2.783609830234E+03
 -4.045675377839E-01 -6.635103579869E-01 1.356270852038E-01 1.946179928770E-01 7.334253679142E-02 2.478103862629E-01 -3.695561527590E-01 -1.822383199614E-01 3.630108110993E-02 1.263983303585E-01 -5.059749654616E-01 7.121403199827E-02 -1.810173317823E-01 -5.594778386368E-01 5.583018350608E-02 1.503287263158E-01 -3.612638316174E-01 -8.455708341488E-02 5.150192727810E-01 2.056704818257E-01 3.496060944237E-02 -3.136038913959E-01 3.135308772388E-03 -2.560220315294E-01 -1.705540307745E-01 8.882867963450E-01 -1.933191667335E-01 2.155095439681E-01 -2.489788449209E-02 1.450004832558E-01 -7.366226255499E-01 -2.283127507185E+00 8.605539524600E-02 2.770366775382E+02 2.856590522895E+03
 4.886770082866E-02 8.990563095607E-02 2.933885128585E-01 -4.002875325068E-02 -2.000874811523E-02 1.003561460705E-01 -3.939715501536E-04 4.881679735371E-02 -6.365762562718E-01 1.015682653368E-02 1.809639387114E-01 -8.291003328677E-02 -9.761441351983E-03 1.401380778426E-01 8.867860911580E-01 -8.402757560511E-03 4.135043122543E-01 2.004833470679E-01 -8.618376336908E-02 7.227734908573E-02 2.526506452338E-01 -2.233296061144E-01 2.353280916403E-01 1.287492618398E+00 2.898633638922E-02 1.802339064308E-01 -3.646869191124E-01 1.291096911836E-01 -1.418107708306E-02 2.638242794167E-01 8.743342546310E-01 1.619882307665E+00 1.024394776396E+01 5.701862739357E+01 2.702063639565E+01 1.516085023754E+02
 -2.016754551596E+01 -3.433731096635E+01 2.255971944860E-01 3.853136503382E+01 -1.257060798162E+00 2.086986485118E-02 3.710140146342E-01 1.801489905875E-01 1.524322972723E-01 3.691981608800E-02 2.814930027148E-01 9.875448364895E-02 3.458228947249E-01 1.440672833959E-01 2.633617483974E-02 -1.245534851740E+03 -4.344837211507E+02 -4.448456035482E+00 -5.546404166172E-01 -3.686565546209E-01 4.597695771195E-01 1.529048998931E-01 6.652828555144E-02 -3.590201512254E-01 2.316079701485E-01 -1.042575368790E+00 -2.316770196373E-01 -4.098790190758E-01 2.820091607841E-01 3.435349910156E-01 -1.985774794048E+01 3.439380756368E+01 -6.492498682424E-01 -5.387606070508E-03 3.126902095231E-01 -8.486171436052E-02 2.775617019912E+03
 3.566741125123E+01 5.813496441082E+01 8.594690402043E-01 -6.775727543674E+01 -3.475543223311E-03 -1.332468014568E-01 -1.037504002836E-01 -2.982248135396E-01 1.236173076223E-02 1.291939181716E-01 -5.602326356983E-01 -4.374020680032E-02 2.765234267273E-02 -1.023933336436E+00 1.827456019119E-01 -4.396399435620E+02 -7.218644217979E+02 -5.010164899130E-01 3.276796799675E-01 2.887581315718E-01 2.834117558984E-01 -1.411209275311E-01 2.192713500596E-02 -6.483656835308E-01 -3.924447184480E-02 7.090331127045E-01 -5.349880689932E-01 3.571277626738E-02 3.498193229825E-01 3.492642410167E-01 -3.200305397906E+01 5.662459580432E+01 -9.120039128705E-02 -1.636189842746E-01 -7.772087719125E-01 6.833212568380E-02 1.959360182499E+01 2.804572077901E+03
 -2.358595501300E-01 8.864947217093E-01 9.995808847809E+00 -6.717972996223E-01 -1.054496297647E-01 9.122529012949E+00 -7.481314666200E-02 2.572425537518E-01 -6.823912145836E-02 1.231219098149E-01 -1.965094270898E-01 1.370437275669E-03 1.731005108356E-01 1.832811196522E-01 1.586298829226E-01 -3.995068812038E+00 -1.923733127831E+00 -8.273130536237E+01 -2.468657165161E-01 -1.150735763447E-01 4.574893463123E+00 1.626640453376E-01 2.532799304423E-01 4.496581124321E+00 -3.436226136103E-02 -4.285781672498E-01 -2.385124512971E-01 -2.206118097838E-01 8.271411112794E-02 2.706461530309E-01 -6.039677181659E-01 1.636889820736E+00 8.655302299372E+00 -2.176262234648E-01 -2.428849555621E-02 9.666748332264E-02 2.099411966268E+01 -1.258201546321E+01 1.915786737734E+02
 -4.114005402270E-01 -2.312818698194E-01 4.260256215456E-02 -1.886284668465E+01 -3.094779952345E+01 -2.859116317361E-01 -4.305941387812E-01 -1.904244407100E-01 -6.302165249584E-02 6.927117036236E-02 -4.337713714350E-01 4.804465152964E-02 -2.902597833866E-01 -4.146437482037E-01 1.149730546624E-01 2.205703367535E-01 -7.753781646184E-01 -2.786597449543E-01 6.258905317810E-01 2.644909654323E-01 -7.930573418151E-02 -3.312787776083E-01 7.887157821302E-04 7.481979891734E-02 -1.856267154093E-01 1.010568213638E+00 -7.912581295812E-02 3.508315160749E-01 -1.638325054017E-01 4.369780651135E-02 3.966213209732E+01 -6.976585186899E+01 -1.111404968623E-01 -2.303882355824E+01 3.994926865743E+01 -3.954976226894E-01 4.032984147865E+01 6.649984865426E+01 1.342740304126E+00 2.770132801090E+03
 -4.228773488956E-01 -6.517270727124E-02 -3.664333631476E-01 3.355381505362E+01 5.582745608302E+01 1.014693628447E+00 -3.616331302984E-01 -1.231638163310E-01 1.122897185035E-01 2.478096283923E-02 -2.413863289466E-01 1.621355379104E-01 -2.420234386279E-01 -1.658954346166E-01 -1.696598336588E-01 1.098860076252E-01 -7.605106539325E-01 -4.330332809311E-01 4.665906726642E-01 1.638924896203E-01 -1.132342595258E-01 -1.998217296271E-01 -1.869026500847E-02 -3.889194561183E-02 -2.076346868805E-01 8.898351416777E-01 3.054989313452E-01 2.477683745109E-01 -2.142807284529E-01 -3.094662822387E-01 1.600904379472E-01 1.954926881437E-02 1.457013836776E-01 -4.201319825019E+01 7.374302077006E+01 -4.124906827744E-01 3.461410303457E-01 -2.113170231308E-01 5.176341619254E-02 -3.817482098305E+01 2.757682337066E+03
 -4.215281269878E-01 3.861316679552E-01 3.275252707901E-01 -1.856584516557E-01 1.790024754977E+00 8.881683429463E+00 -1.771774286733E-01 8.408797869424E-02 -1.267957435310E-01 -1.892428827282E-01 1.611075560511E-01 3.482376333560E-01 -1.388858088162E-01 2.778441506351E-01 7.574232138861E-01 7.947018151694E-01 -3.725703246925E-01 -9.153663232287E+00 4.129693156095E-01 -7.258861871767E-02 -2.539072770978E-02 -1.618489165718E-01 -4.113443126583E-01 3.090176584494E+00 8.039484698396E-02 -4.139398496808E-01 -1.812735650708E+00 8.989333002019E-02 -2.404930537308E-01 2.152349835789E+00 8.884870938629E-01 -1.753375302544E+00 8.950783677826E+00 -8.350343291443E-01 2.019044609123E+00 1.241729878728E+01 7.170005599102E-01 9.233934946579E-01 8.963232890671E+00 4.027068106734E+01 1.445414910825E+01 1.869371556652E+02
 2.606017593382E-02 -1.764515925801E-01 1.039887047587E-01 8.352695389794E-02 -1.080733347390E-01 -3.762675224514E-02 2.324005111530E-02 -3.588515345581E-03 3.352331889895E-02 3.527013778876E-02 -5.780758587295E-02 -2.100737085611E-02 4.443934867544E-02 -9.447826965259E-02 -2.033818396860E-02 -2.881442200426E-02 1.306913900699E-01 6.563998882352E-02 -3.991156547970E-02 -7.264752696828E-03 3.720072137991E-02 -6.751620034323E-03 3.796909918879E-03 -9.712177644906E-02 3.876395987768E-03 -3.893468023709E-02 -2.266685522401E-02 -5.520577889005E-02 6.704903148928E-02 -1.877112239284E-02 -1.232263409596E+03 4.351250501518E+02 -2.236366808546E+01 -5.076770681729E+02 -1.872381959295E+01 -9.761461737112E+00 -3.793154164083E-03 -2.193338929375E-01 3.378281626563E-01 1.075676255851E-02 4.786607304737E-02 -7.903824016390E-02 2.842360040572E+03
 8.161868561173E-01 4.540968428565E-01 -2.838748224429E-01 -2.256298994967E-01 -8.664382229005E-01 -2.121860768031E-01 6.766764405886E-01 2.238299487574E-01 -8.137394212474E-02 -6.543357283709E-02 6.289614881349E-01 -1.372701957396E-02 4.864568754603E-01 5.611236613854E-01 -9.909614167690E-03 -1.600319944938E-01 1.043467768377E+00 -8.406472676308E-02 -1.034320021068E+00 -4.715786539333E-01 -1.371119477385E-01 4.669411940004E-01 4.273586091488E-02 2.897140850337E-01 2.469168006565E-01 -1.366649189642E+00 9.374303368476E-02 -5.408344252543E-01 2.799928044829E-01 -8.621568182082E-02 4.367551135137E+02 -7.325943986283E+02 5.806420330566E+00 -2.860002788457E+01 -1.540570728888E+03 -1.230645870393E+01 -5.817440159156E-01 7.255215836330E-01 -3.471502886754E-01 7.727014379353E-01 4.891265294008E-01 -3.277694488360E-01 2.869916485837E+01 2.890819311257E+03
 1.333542607759E-01 -5.789321055317E-01 -4.479324289833E-01 7.383197160850E-02 -5.782858729535E-01 -8.309382205334E-01 1.133803434285E-02 -4.483329728973E-02 3.000723993779E-01 1.257700085983E-01 9.505399895051E-02 -2.017475640573E-01 2.140354803133E-01 -1.587071302184E-01 -9.844486652654E-01 -4.702482504478E-02 8.361021992087E-01 1.915289647298E-01 -2.121002080545E-01 -1.082718999782E-01 -2.369541699596E-01 -8.223826138478E-02 2.481415474791E-02 8.689990357811E-01 -1.548357959095E-01 4.873991179960E-01 1.958704454286E+00 -3.003221175757E-01 2.667744255975E-02 -2.276453839958E+00 -2.221253419536E+01 6.417285771735E+00 -8.490744382603E+01 -1.003454327694E+01 -1.259299429576E+01 -7.751290452928E+01 -3.851619281005E-01 -6.713468407585E-01 4.300200418296E+00 2.325475341387E-01 2.237022528453E-01 -1.189763727628E+01 6.045312321478E+01 2.195261643941E+01 1.871146522546E+02
 -4.568464779863E-01 2.803504811802E-02 1.876438066244E-01 1.581413867624E-01 9.915997306609E-01 -4.048335809339E-01 -4.197735859549E-01 -8.979092895356E-02 6.081662924542E-02 -5.666909695497E-02 -2.038051982281E-01 -7.101636077001E-02 -3.748529342023E-01 -8.272591606076E-02 -8.284475798682E-02 -1.976048272032E+01 3.401061704617E+01 -3.379880678920E-01 6.808839147440E-01 3.267799432547E-01 -4.662745457645E-02 -1.544868603873E-01 -8.024190129193E-02 -2.506038703433E-01 -1.456411558774E-01 7.754596591828E-01 5.249944053729E-02 4.025073333092E-01 -3.113871059215E-01 -1.057454983387E-02 -1.223624020136E+03 -4.239446593852E+02 -2.417585336053E+01 2.937918517701E-02 -9.993936367382E-02 1.761458666060E-01 -1.170020517034E+03 4.257277874801E+02 -1.363631904111E+01 -4.724640919589E+02 -1.105057503452E+01 -7.213944350257E+00 -1.959005505625E+01 -3.330912171204E+01 -7.476773951920E-01 2.750642330374E+03
 7.504274690752E-01 -1.383499265411E-01 -5.635383116549E-02 6.216502771265E-02 -1.435173675929E+00 4.029547014926E-01 5.524537374394E-01 1.204919350772E-01 -1.369669681196E-01 1.333550229708E-01 1.962770124536E-01 -5.561504544125E-02 5.522389187112E-01 -2.942039399361E-03 1.002452433972E-01 -3.289885362115E+01 5.879994103284E+01 -8.766815699437E-01 -9.115016087956E-01 -4.521680598090E-01 -1.584402537936E-01 2.163188523789E-01 1.295417727651E-01 2.227614322960E-01 1.832213653432E-01 -1.052054120965E+00 -1.470506424162E-01 -5.944297071190E-01 4.628361576566E-01 2.658707612737E-02 -4.271184509191E+02 -7.107118209499E+02 -1.236332547003E+01 -2.760283510574E-02 2.706474260939E-01 2.886717966350E-01 4.265173900721E+02 -7.175246514278E+02 4.232960108697E+00 -7.954651509979E-01 -1.496935214814E+03 -7.973974140290E+00 3.451993145868E+01 5.896254707591E+01 6.114199412786E-01 2.025069355959E+00 2.807590531650E+03
 -4.604579910730E-01 3.160184367255E-01 4.950694159617E+00 6.606081047015E-01 -3.434903925836E-02 -8.230145826691E+00 -8.817501272068E-02 1.746169340656E-01 -5.040009521984E-01 1.204991959107E-01 -4.478760645775E-02 -3.025838427342E-02 -6.012740883941E-03 4.558642935167E-02 9.853945711553E-01 -1.936271698840E-01 -1.007676422655E+00 8.901824492652E+00 8.622732595145E-02 -1.067216877735E-01 4.494682055037E-01 -3.532393557487E-01 2.298198405353E-01 7.378869235877E-02 1.287016220293E-01 -4.392075217279E-01 -1.313913586361E+00 8.536620697706E-02 5.420044546364E-02 1.483479421652E+00 -2.441030369896E+01 -1.180286701738E+01 -8.327326766487E+01 -7.047393590506E-02 3.172992517337E-02 -9.718761239394E+00 -1.315027936192E+01 6.754213208182E+00 -8.016097188750E+01 -6.650906140737E+00 -1.010469038774E+01 -8.188011685297E+01 -2.867130394326E-01 -9.066397201491E-01 8.692590565987E+00 4.391203345577E+01 1.584887964368E+01 1.923795157547E+02
 3.369387576548E-01 4.353508280728E-01 8.824864590065E-03 -1.244749893806E-01 -1.043399964006E-01 -2.580136184857E-02 3.261542291061E-01 1.384341499451E-01 1.049261797980E-01 -1.217220683522E-01 3.848936520853E-01 -5.500828092489E-03 1.574339246046E-01 4.324847576947E-01 -1.225725423595E-01 -1.242471942224E-01 3.497006474371E-01 1.606656037113E-01 -4.255689898893E-01 -1.761267964293E-01 -1.239821676943E-02 3.492956467361E-01 -4.924323400419E-02 -1.681143702741E-01 1.591548083489E-01 -8.458882238438E-01 4.207207498501E-03 -2.072607818295E-01 6.375051800205E-02 5.441768266287E-02 -4.369392607337E-01 2.446969302879E-01 1.937961558190E-01 -1.507568175231E+03 -5.261939067596E+02 -3.408871244445E+01 -2.866791603353E-01 5.148862629059E-01 -1.284660035702E-01 -1.275557953539E+03 4.363682682867E+02 -1.780630371334E+01 4.871567376327E+01 -1.841443288980E+00 8.532772556073E-01 3.972287176006E+01 -3.908314835140E-01 5.989367027242E-01 3.073238605869E+03
 -2.931758241009E-01 4.468617283367E-01 1.335074774619E-01 -2.450250523976E-02 7.970932579491E-01 2.618030863455E-02 -1.856031704776E-01 1.201691107220E-02 6.198628016732E-02 -1.087888942014E-01 -1.019457930023E-02 -4.392799409954E-02 -2.609038196849E-01 1.490232341119E-01 -2.034868198885E-02 -1.703678928691E-02 -7.092952870121E-01 1.175080971759E-01 3.820654717124E-01 1.976606702291E-01 1.033347006779E-01 -2.368490863092E-02 -7.139411820404E-02 -2.281132915816E-01 1.352844940203E-03 9.882184467060E-02 -9.110986938407E-02 2.682138804028E-01 -2.242669826061E-01 1.934591424146E-01 -3.179160492977E-02 -5.470105089909E-02 -5.501840211516E-02 -5.362608539015E+02 -8.630921211429E+02 -1.739918923700E+01 2.221883091627E-01 3.559331042320E-01 2.314178666982E-01 4.209893801767E+02 -7.273025114546E+02 3.258861827935E+00 -8.581288787021E+01 2.318932793604E+00 -1.753110837852E+00 7.170548183971E+01 5.641682621054E-02 1.623395880297E+00 8.924490411320E+01 2.537770250970E+03
 3.067967774911E-02 -1.491259398149E-01 -2.956781489325E-01 -1.430500644793E-01 -1.880949009435E-01 4.141476205764E+00 4.594812614412E-02 -3.764245847506E-02 3.614682433737E-01 -2.902514835032E-02 -5.517650380794E-03 -2.440268652042E-01 4.850791461215E-02 -1.072957918080E-01 -8.352764924201E-01 1.342954790917E-02 2.037375805573E-01 1.168253360001E-01 -8.672893434806E-03 5.654460572309E-02 2.498456864233E-02 1.086532936278E-01 -5.248564029050E-02 1.355603189318E-02 3.557895738778E-02 -1.074604129057E-01 1.154053248742E+00 -1.210384708809E-01 3.593811213690E-02 -1.270059601361E+00 -3.372671275535E-02 -8.315237939423E-03 -9.637611871709E+00 -3.343977345214E+01 -1.687361845482E+01 -7.131971900442E+01 1.946356793879E-02 -1.514985956492E-01 4.477567191491E+00 -1.884153921844E+01 4.496654719926E+00 -7.736429462284E+01 -3.507484031503E-03 1.811352858889E-01 1.176390821657E+01 1.091581905798E+00 -1.537975483708E-01 9.201898623081E+00 5.756787167072E+01 1.769828382307E+01 1.526954234744E+02
 -2.076776941079E-02 -8.385286063244E-02 -3.053231089796E-01 -1.224887841325E+03 4.475750445410E+02 1.163859839528E+00 1.512641477048E-01 6.751086771744E-02 3.079407699795E-01 -6.876364881816E-03 7.676612732092E-02 2.214944549124E-01 9.733752982007E-02 7.963120089432E-02 -3.382045179506E-01 4.059658032472E+01 -2.272930011193E-01 -2.568249182521E-01 -1.618222471648E-01 -1.311013572086E-01 9.178253588048E-02 -1.989339305347E+01 3.573101160014E+01 -4.270617915259E-02 5.434163194444E-02 -4.067725152542E-01 7.638585219112E-02 -1.707264337713E-01 8.655264357394E-02 5.521831956698E-02 -1.682287252632E-01 5.393060017284E-02 2.253233919546E-01 3.019116384058E-02 1.881066285614E-01 -5.305422747849E-01 2.016700021226E-01 2.822195488197E-02 8.615516975992E-02 -1.139076079379E+03 -3.889824397227E+02 -1.518791767328E+01 2.278830733357E-02 -2.509219005651E-01 2.275821117537E-02 3.668948210115E+01 -2.754760233955E-01 1.063429350686E-01 -1.782363654038E+01 -3.235596026158E+01 -3.570075425403E-01 2.730410788421E+03
 2.283417869976E-01 3.022404180281E-01 2.910047693741E-01 4.572284097730E+02 -7.429363979537E+02 -6.547977207724E+00 1.826982899402E-01 1.111114756241E-01 -9.914551726692E-02 -1.079369391449E-01 3.712272721010E-01 -1.655874063857E-01 1.074576571810E-01 3.776049429778E-01 4.243242136760E-02 6.692642211208E+01 -1.100907459848E-01 4.496280709026E-01 -2.597941628567E-01 -5.218409787173E-02 -1.218803403922E-02 -3.304128454526E+01 5.900168311737E+01 2.656397062272E-01 1.057962779272E-01 -5.269675582704E-01 3.898294896744E-02 -1.415253285521E-01 -4.944685127933E-02 -1.237030541783E-01 -2.062886604851E-01 2.070689307123E-01 -1.556777459357E-01 9.997944676860E-02 3.432667459776E-01 7.978437384635E-02 -2.378188329865E-01 1.665031468729E-01 -2.216764968760E-01 -3.873566072638E+02 -6.673797353422E+02 -1.173453127678E+01 1.123524119545E-02 -3.949414634063E-01 1.680412965264E-01 -6.497230350211E+01 2.670369934784E-01 -3.519596823668E-01 3.118714386316E+01 5.744913928264E+01 5.381052760393E-01 -9.907584927012E+00 2.819787521091E+03
 3.623584118104E-01 -1.010939487142E+00 4.492977406997E+00 1.792407730816E+00 -6.329219510180E+00 -8.297870897814E+01 -4.067644701666E-02 -1.989584441042E-01 -2.501792361063E-01 -2.295676657811E-01 1.655870675523E-01 4.311301061418E+00 9.580303264649E-02 -1.146165979667E-01 -2.307872561556E-01 -1.628469346572E-01 1.367336638632E+00 9.267573103939E+00 -2.597144287538E-02 3.658921193868E-01 6.345836899884E-02 -2.431562504782E-01 3.360535250303E-03 1.149819776050E+01 -2.575546588164E-02 7.156048154119E-01 1.644697468853E+00 -7.751645734056E-02 -1.029688159241E-01 -2.064293636248E+00 -2.907732468087E-01 -1.223139519454E-02 4.450741417313E+00 7.180335569567E-02 -6.418794657613E-01 6.166932106742E+00 4.837140321121E-03 -3.795371628009E-01 -8.945581203822E+00 -1.567838595776E+01 -9.867845241877E+00 -8.213257777789E+01 -1.709340933880E-01 7.938463707416E-01 1.278390630476E+00 1.474177256069E-01 -2.519767860303E-01 7.678327828101E+00 -8.952070660788E-01 -7.266732023089E-01 1.015205200806E+01 1.598428624367E+01 4.222383987529E+01 1.888475461149E+02